# PF6 LAMMPS data converted from Desmond OPLS 2005

7 atoms
6 bonds
15 angles
0 dihedrals
0 impropers
2 atom types
1 bond types
2 angle types
0 dihedral types
0 improper types
-1.525101 8.474899 xlo xhi
-1.572917 -1.572917 ylo yhi
-1.570973 -1.570973 zlo zhi

Masses

1 30.9738000
2 18.9984000

Atoms

1 1 1 1.04600000 -0.0000080 0.0000030 -0.0000050
2 1 2 -0.26600000 -0.4389380 1.5729790 -0.1127300
3 1 2 -0.26600000 -1.5251010 -0.3937070 0.4460130
4 1 2 -0.26600000 0.4015780 0.2247400 1.5709950
5 1 2 -0.26600000 -0.4017250 -0.2247780 -1.5709730
6 1 2 -0.26600000 0.4391480 -1.5729170 0.1128530
7 1 2 -0.26600000 1.5250450 0.3936790 -0.4461520

Bonds

1 1 1 2
2 1 1 3
3 1 1 4
4 1 1 5
5 1 1 6
6 1 1 7

Angles

1 1 2 1 3
2 1 2 1 4
3 1 2 1 5
4 2 2 1 6
5 1 2 1 7
6 1 3 1 4
7 1 3 1 5
8 1 3 1 6
9 2 3 1 7
10 2 4 1 5
11 1 4 1 6
12 1 4 1 7
13 1 5 1 6
14 1 5 1 7
15 1 6 1 7

Dihedrals


Pair Coeffs

1 0.2000000 3.7400000
2 0.0610000 2.9400000

Bond Coeffs

1 3.40000000e+02 1.63700000e+00

Angle Coeffs

1 6.00000000e+01 9.00000000e+01
2 0.00000000e+00 1.80000000e+02

Dihedral Coeffs

