325
Lattice="18.060800552 0.0 0.0 -0.004918649 18.062799454 0.0 0.0 0.0 62.487499237" Properties=species:S:1:pos:R:3:forces:R:3 energy=-1577.7553812 stress="0.0009458632589728525 1.629658032768119e-05 2.0996436699471283e-05 1.629658032768119e-05 0.000994971452775302 5.6005061386550475e-05 2.0996436699471283e-05 5.6005061386550475e-05 0.00019011012646527817" free_energy=-1577.7553812 pbc="T T T"
H        8.83196000       6.19552000      35.21350000       0.00588000      -0.00362100      -0.00299600
H        7.32082000      14.08134000      35.45412000      -0.00058400       0.00217600       0.00802800
H       16.79713000       3.99756000      36.13524000      -0.01643900      -0.02426900       0.01861500
H       16.53465000      14.02399000      35.63511000       0.00879900       0.00275500      -0.00369900
H        4.94057000       1.72292000      35.45468000      -0.02608500       0.05101400       0.02260000
H        5.69311000      10.88675000      35.17679000       0.09396000       0.04411300       0.02752500
H       14.14608000       1.76096000      35.23379000       0.00072600      -0.01137800      -0.00307800
H        2.10854000       4.15627000      34.77163000      -0.00925900      -0.03278100      -0.00300100
H        1.83710000      12.78042000      35.12374000      -0.01199200      -0.00762400       0.00244100
H        9.87076000       2.66387000      35.18158000      -0.00196700       0.01087200      -0.00658300
H       10.67173000      12.66053000      35.24878000       0.03238500      -0.00439200      -0.00983800
H        6.45726000       0.92241000      35.05734000       0.04467500       0.01993200      -0.00564800
H        4.13125000      10.87893000      34.43626000      -0.03707300       0.00531200      -0.01299200
H       15.59028000       0.84196000      34.80710000      -0.01160100      -0.00009000       0.00371300
H        0.98535000       3.04168000      35.49511000      -0.00527700       0.01876300      -0.05111000
H        0.24087000      12.24612000      35.64650000      -0.01235400      -0.00692200       0.00311100
H       10.58327000       4.25631000      35.29176000       0.00252500       0.00480100       0.00182900
H        9.01596000      12.18655000      35.59601000       0.00889600       0.01123100      -0.00193800
H        5.51944000       8.78294000      36.05476000       0.03027000      -0.02430200      -0.00488900
H        3.00523000       0.11097000      35.88974000       0.02778200      -0.01539400      -0.01839100
H       12.15554000       0.29791000      35.87893000      -0.01629200       0.02291400       0.00775900
H        7.18008000       5.63472000      35.06834000      -0.00463400      -0.00037600      -0.00091400
H        8.01900000      15.65263000      35.07932000       0.00293200      -0.02439500       0.00387100
H       16.56590000       5.67409000      35.76364000       0.00005200      -0.00031800       0.01296500
H       17.07806000      15.61085000      35.08530000      -0.01434000       0.02077500       0.00048700
H        3.57353000       7.56764000      35.90790000       0.03406800       0.01227500      -0.00899800
H        3.35788000      16.48334000      35.54516000       0.02827700       0.06394900      -0.00042500
H       12.33485000      16.65545000      35.49451000      -0.00692700      -0.00695700       0.00502400
H        7.71502000       3.42486000      35.01632000      -0.00415100      -0.00108400      -0.00128000
H       10.15043000      14.84032000      34.83902000       0.00828100       0.00033700      -0.00384600
H        0.56973000       5.91552000      34.74912000       0.00530900      -0.00773700       0.02760400
H        1.14225000      14.90359000      34.63270000       0.00543100      -0.00758700      -0.00203100
H        2.73500000       8.72280000      34.92837000       0.02303900       0.02651700      -0.01565100
H        5.53825000      16.88684000      34.99861000       0.01574600      -0.00152200      -0.00065900
H       14.49203000      16.87058000      34.80082000       0.00593600       0.00142000      -0.00309600
H        7.35790000       4.72510000      41.06267000       0.01846200       0.00852900       0.00455200
H        8.67507000      14.75164000      42.15112000      -0.00441800      -0.00267200      -0.01070500
H       17.07117000       5.87263000      41.86528000      -0.00069400       0.00750000      -0.00397500
H       18.00148000      13.66583000      42.72909000      -0.00233300      -0.02184800      -0.00752600
H        5.57610000       0.43123000      42.30725000       0.00263800      -0.00512800       0.01342900
H        5.71087000       9.11820000      42.24301000       0.00747400      -0.02896600       0.01058200
H       14.20745000       0.85775000      42.40943000      -0.00452600      -0.00337000       0.00097100
H       15.24356000       9.08848000      41.18768000       0.00883700       0.00262500       0.00248300
H        1.38990000       3.14342000      41.43458000      -0.02033900       0.02569300       0.00550900
H        1.16031000      12.83498000      40.12349000      -0.01200600       0.01281700      -0.03481100
H       10.85131000       3.56403000      41.22241000       0.00380900       0.00306200      -0.00065100
H       10.28972000      12.07407000      40.27953000       0.00077600       0.00252700       0.00299700
H        2.96510000       7.75225000      40.29328000       0.02617600       0.02003700       0.02189300
H        3.01541000      16.71264000      40.41213000       0.00327700       0.00232900      -0.00669500
H       11.70038000       8.13756000      41.06696000      -0.00799500      -0.00643500      -0.00244800
H       12.17445000      16.71011000      40.32110000      -0.01366500      -0.00860900      -0.01705900
H        0.82187000       4.27097000      42.62750000       0.00011400       0.00624600      -0.03246100
H        1.48869000      12.27751000      41.74640000      -0.02033600       0.02153700      -0.00755100
H        9.23945000       2.89143000      41.15818000      -0.01778800      -0.00525600       0.00339500
H       10.27992000      12.79476000      41.87220000       0.00671700       0.00481200       0.00507700
H        4.21975000       7.26563000      41.39537000      -0.01972700       0.01478900      -0.01509600
H        3.64926000      16.83445000      42.03343000       0.00629600       0.00911100      -0.01096900
H       13.28400000       7.38816000      41.18133000      -0.01411700       0.00077500       0.00392600
H       12.43129000      17.11059000      41.99854000      -0.01170400      -0.01121600       0.00861600
H        7.98114000       6.35744000      41.06705000       0.00063900      -0.01624800      -0.00770400
H        7.64047000      15.06829000      40.77873000       0.00622400       0.00118800       0.00114500
H       16.72914000       5.84966000      40.15329000      -0.01032400       0.00380100      -0.02384400
H       16.72518000      15.13730000      41.50782000      -0.02019300       0.01589200       0.02977100
H        5.94857000       1.37927000      40.89141000       0.00177200       0.00304000      -0.00470000
H        5.37099000      10.72044000      41.59404000       0.00947800       0.03447100       0.00245900
H       15.02199000       1.43278000      40.98470000      -0.01172500      -0.00998400       0.00289500
H       14.73327000      10.75927000      41.06411000       0.00526500       0.02031400       0.00232100
H        0.11879000       4.08639000      39.72525000      -0.00651500      -0.00610500      -0.00644000
H       17.42917000      14.67755000      39.97449000      -0.01281200       0.00421700       0.02422000
H       10.17352000       5.74174000      41.16947000       0.00692600      -0.00007000       0.00657300
H        8.57887000      13.40124000      39.48270000      -0.00311400      -0.00188300      -0.00203400
H        4.37551000       0.32326000      39.57028000      -0.00288800      -0.00648200       0.00520200
H        3.59191000       9.98610000      40.31285000       0.01305300       0.01542400      -0.00241700
H       13.79856000       0.10001000      39.54347000      -0.00653600       0.00906000       0.00965600
H       12.50634000      10.27648000      40.96856000       0.01878000      -0.01472100      -0.00293200
H        8.25646000       4.64085000      48.81017000       0.00641300      -0.00323300      -0.00925800
H        8.17146000      13.92310000      48.68332000      -0.00017800       0.00334000      -0.03925000
H       17.24774000       4.50351000      48.89339000      -0.00303800       0.00668800      -0.00251200
H       17.13767000      14.24601000      48.45129000       0.00342300       0.00039900      -0.02166100
H        5.30901000       1.00351000      48.48950000       0.00130700       0.00174300      -0.03641100
H        5.42314000       9.94398000      48.41961000       0.00944600       0.01110400       0.02852200
H       14.09849000       1.61836000      48.13759000      -0.00617300       0.00055600      -0.00958400
H       14.37854000      10.12270000      48.25019000       0.00095700       0.00198400       0.00048600
H        1.53470000       3.31658000      46.39604000       0.00781900      -0.00165300      -0.00906400
H        1.48927000      12.19602000      46.64554000       0.02213300      -0.01903800      -0.02681800
H       10.56024000       3.16995000      46.42527000       0.00344900       0.00669800      -0.01298600
H       10.41416000      12.19500000      46.41737000      -0.01794000       0.00956700       0.00919600
H        3.05945000       7.68761000      46.80197000      -0.00319300       0.00143800      -0.00025400
H        3.11108000      16.70253000      46.77264000      -0.00706700      -0.01446400      -0.00771200
H       12.10612000       7.66893000      46.77923000      -0.00291000      -0.00459800      -0.00115800
H       12.44976000      16.50312000      47.54606000      -0.00055800      -0.00025400       0.00473500
H        1.05784000       3.04569000      48.04901000       0.01313700      -0.02092000       0.01179300
H        0.91404000      12.48600000      48.26816000       0.00327900      -0.00605500       0.00625100
H       10.12545000       3.09972000      48.11222000       0.00062600       0.00227500      -0.02757900
H        9.94226000      12.22902000      48.09672000       0.00534000      -0.01842300       0.02029000
H        3.61275000       8.15418000      48.38641000      -0.00280300      -0.00186200       0.00214600
H        3.48868000      17.26612000      48.37886000      -0.00379400       0.00268800       0.01359500
H       12.56322000       8.33891000      48.32805000      -0.00564200      -0.00227300       0.00437100
H       12.39330000      17.90894000      48.59337000       0.00133400       0.02632100       0.01568900
H        7.78942000       5.85360000      47.64965000      -0.00547000      -0.00230400      -0.00240000
H        7.75058000      15.06070000      47.42928000      -0.00681000       0.01341600       0.00972100
H       16.85972000       5.89060000      47.90397000       0.00628200      -0.01037000       0.00161500
H       16.70357000      15.03205000      46.96098000       0.02195500      -0.02537800       0.01648300
H        5.97263000       1.47608000      46.95034000      -0.01243200      -0.01457200       0.00415200
H        5.92926000      10.52139000      46.85506000      -0.00517400       0.00183500      -0.00243200
H       15.07089000       1.40230000      46.70964000      -0.00331100      -0.00250600      -0.00128900
H       14.96218000      10.51098000      46.65117000       0.00117200      -0.00156800      -0.00451600
H        0.19824000       5.20978000      46.16191000       0.00550400      -0.00763200       0.00094700
H        0.11480000      13.77304000      45.68490000       0.00505800      -0.00078000      -0.00414000
H        9.15245000       4.96279000      45.97080000      -0.00201200       0.00676200       0.01036800
H        9.09018000      14.00409000      45.83633000       0.00670500       0.00800800       0.00521800
H        4.65189000       0.01384000      45.74096000       0.00545000      -0.00730500      -0.02126400
H        4.47862000       9.14541000      45.69625000      -0.00523300      -0.00166400      -0.00274500
H       14.10514000      17.41288000      46.18633000      -0.01049100      -0.00031400       0.01536600
H       13.58880000       8.98591000      45.59310000      -0.00338100      -0.00272300       0.00162700
H       12.69958000       7.73954000      32.86858000       0.00360400       0.00224900      -0.02023200
H       13.32656000       8.47927000      31.38732000       0.01175500      -0.02536600       0.02522100
H       11.79178000       9.78361000      33.51151000       0.00020500      -0.03447400      -0.00175800
H       12.80003000      11.22857000      33.70939000       0.02848500      -0.04081600      -0.01116600
H       15.12752000       8.77091000      34.68231000       0.04694700      -0.00414000       0.00556800
H       14.21065000      10.22165000      35.09652000       0.03548300       0.09331000      -0.00296800
H       15.90910000       9.50494000      32.72341000       0.03642800      -0.02281700       0.03310100
H       14.87222000      10.13532000      31.42947000      -0.01160400       0.06644600       0.03710800
H       15.65125000       7.64044000      31.97080000      -0.02412900      -0.04160900       0.00420200
H       14.99360000       6.89549000      33.43477000      -0.01840000       0.02839300      -0.05328800
H       15.22305000       5.18277000      31.82443000      -0.04292900       0.02861500      -0.01535200
H       13.50722000       5.44715000      32.03875000      -0.01054700      -0.01954700       0.04650500
H       11.97116000       9.99529000      30.98572000       0.02583100       0.04703800       0.04709300
H       12.96142000      11.47078000      31.20103000       0.02400500       0.00286900      -0.00074700
H       11.29287000      11.41421000      31.78383000       0.01036700       0.01709600      -0.00198900
H       13.35455000       8.39599000      36.41813000      -0.00425400       0.01559200      -0.06053200
H       13.10177000       7.34265000      35.02396000      -0.03138300       0.06906600       0.03045700
H       12.07768000       8.79074000      35.27077000      -0.03322400       0.00346900      -0.00280500
H       14.58420000      12.29058000      32.78720000      -0.02830800      -0.00310600      -0.03677000
H       16.27959000      11.87892000      32.47472000       0.06350500       0.04333700      -0.00785400
H       15.58517000      11.60032000      34.07230000       0.03178700      -0.06672100       0.11472600
H       15.15158000       6.54625000      29.67808000       0.02030600       0.03522400      -0.00025700
H       14.25834000       5.03455000      29.66758000      -0.02517400      -0.01918800      -0.00818100
H       11.66232000       5.52222000      30.75691000       0.00385300      -0.02947500       0.02156600
H       14.08369000       8.19871000      28.40975000      -0.05170100      -0.01786900       0.01199900
H        9.62675000       6.74493000      30.06945000       0.03230700       0.00276300      -0.01118500
H       12.03595000       9.41141000      27.68753000       0.00599000      -0.02418700       0.03340400
H        9.79745000       8.69701000      28.52779000       0.01130600       0.01413300       0.00581300
C        0.27500000       4.93401000      35.13705000       0.07736100      -0.03385100      -0.03839900
C        0.41172000      14.17722000      34.99732000      -0.07061500       0.05230700       0.00360800
C        8.52549000       4.15175000      35.09635000       0.04518000      -0.02903800      -0.00482700
C        9.34262000      14.14619000      35.08307000      -0.00658000       0.00246100       0.01462700
C        4.69401000       9.17577000      35.45254000      -0.05197000      -0.08157500       0.00815400
C        4.89968000      17.73470000      35.25204000      -0.05364900      -0.02736000      -0.04037000
C       13.94527000      17.77312000      35.08201000       0.01453800       0.02464000      -0.00365600
C        0.04312000       4.48547000      40.73833000      -0.00378500       0.01083800       0.01409100
C        0.06768000      13.70036000      41.64541000       0.03982600      -0.01304400      -0.00089800
C        9.41392000       4.95880000      41.14718000       0.02967800      -0.03067100      -0.00111200
C        8.93755000      13.55161000      40.50380000       0.00769200       0.01398000      -0.01972300
C        4.14962000       9.26876000      40.92251000      -0.01495800       0.02210200       0.01662200
C        4.47629000       0.03060000      40.61762000       0.03136200       0.03816700       0.01449800
C       13.21569000       9.45038000      41.04974000      -0.03143900      -0.01952300       0.00792700
C       13.60594000       0.04263000      40.61635000       0.01372400      -0.02489600      -0.00361800
C        9.15523000       4.52252000      46.97031000       0.03564000      -0.00531900      -0.01860300
C        9.06510000      13.63144000      46.86252000      -0.00192600      -0.01112400       0.00464500
C        0.15433000       4.62898000      47.08681000      -0.03519200      -0.00405300       0.00153800
C        0.05858000      13.60606000      46.76088000      -0.00556700       0.00422900       0.01849900
C        4.54953000       0.05229000      46.82580000       0.02258800       0.05826400       0.02772700
C        4.49243000       9.10793000      46.78664000       0.01914800       0.00617900       0.01040100
C       13.74630000      17.97004000      47.05705000       0.04778000       0.00461800      -0.00253800
C       13.53797000       9.08429000      46.67940000       0.00375700      -0.00278700       0.01546300
C       13.01991000       6.77790000      29.63693000       0.07536100      -0.07225000       0.06557500
C       11.75234000       6.37717000      30.08546000      -0.04931300      -0.00477700       0.01178400
C       13.10240000       7.87578000      28.77088000       0.01981800       0.05592300      -0.05753800
C       10.60256000       7.06434000      29.69793000      -0.05683800       0.05122500      -0.02811800
C       11.95210000       8.56151000      28.36879000      -0.05185000       0.06248900      -0.04219300
C       10.69714000       8.16317000      28.83588000       0.00699800      -0.04531400       0.01687900
C       13.59138000       8.18323000      32.40711000      -0.07076300       0.00611300       0.00185400
C       12.60770000      10.36160000      33.06075000       0.00975300       0.04909800      -0.02862000
C       14.13478000       9.23348000      34.63228000      -0.06766300      -0.06693900       0.03819400
C       15.05722000      10.15999000      32.51299000      -0.03519800      -0.03404600       0.01870800
C       14.74504000       7.18749000      32.40151000       0.07354600      -0.03651500       0.02938200
C       14.41533000       5.90370000      31.62136000       0.02601400       0.02574900      -0.03115000
C       12.21113000      10.82196000      31.66950000      -0.02907500      -0.06131900      -0.00884700
C       13.09559000       8.39338000      35.35032000       0.09479500      -0.07106700      -0.04599400
C       15.37105000      11.55913000      32.99997000      -0.04095000       0.00261600      -0.14057700
C       14.26262000       6.04959000      30.09747000       0.05736400      -0.00226900      -0.03374300
N        1.13965000       3.94682000      35.04317000      -0.04017500       0.00714200       0.02972400
N        0.83029000      12.94814000      35.18993000       0.02364400      -0.01567100       0.00144500
N        9.74814000       3.67846000      35.16390000      -0.02743700      -0.00937300       0.00042400
N        9.67700000      12.88741000      35.24718000      -0.03583600      -0.00688500       0.00352600
N        8.17807000       5.41676000      35.10066000      -0.01207900       0.02271200       0.00347700
N        8.12644000      14.63739000      35.16453000       0.00723200      -0.00153500      -0.00479000
N       17.12147000       4.83028000      35.62639000      -0.00115900       0.05311300      -0.00080800
N       17.24330000      14.60488000      35.18014000       0.02688100      -0.04204000      -0.00532600
N        3.62500000       8.42451000      35.35352000       0.01369000      -0.01740800       0.02072100
N        3.64484000      17.46461000      35.52475000      -0.02393200      -0.03407100       0.02271900
N       12.69050000      17.61113000      35.43480000       0.01960700      -0.00616100      -0.00569300
N        5.44716000       0.86692000      35.22609000      -0.00707000      -0.04312100       0.01309600
N        4.86980000      10.35464000      34.89739000      -0.06654700       0.01379800      -0.05358700
N       14.58530000       0.85687000      35.01868000       0.00519500      -0.01030100       0.00157700
N        0.80165000       3.94122000      41.66119000       0.02363400      -0.01710600       0.03750500
N        0.95565000      12.88663000      41.12083000      -0.01503200       0.00028900       0.07586000
N        9.84172000       3.71861000      41.18441000       0.00104200       0.04817800      -0.00643000
N        9.88673000      12.74921000      40.93116000      -0.00416200       0.00114300      -0.00451000
N        3.74178000       8.02089000      40.90005000       0.00492200      -0.04879500      -0.00610200
N        3.67743000      17.14540000      41.05897000      -0.01811300      -0.02155400       0.01523900
N       12.71878000       8.23579000      41.09108000       0.02678200       0.03529000      -0.00692500
N       12.69102000      17.24991000      41.01949000       0.02317900       0.02938900      -0.00769700
N        8.16450000       5.35336000      41.09270000      -0.03943900       0.00792200      -0.00569200
N        8.37127000      14.50338000      41.20740000      -0.00273200       0.00192100       0.01611200
N       17.25453000       5.46484000      40.94276000       0.01997700      -0.01866000       0.00678300
N       17.37542000      14.54916000      40.98536000       0.02807900      -0.01510300      -0.07510000
N        5.36863000       0.67216000      41.33709000      -0.02711500      -0.01517800      -0.03056900
N        5.17354000       9.71815000      41.60903000      -0.02356800      -0.01442100      -0.03186300
N       14.31657000       0.82616000      41.39612000       0.01341900       0.02138300      -0.00513200
N       14.48770000       9.76762000      41.09076000       0.00890200      -0.00119800      -0.00860500
N        0.94609000       3.58526000      47.18514000       0.00604100       0.00797800      -0.00870200
N        0.85996000      12.69929000      47.26996000      -0.02965700       0.02883400       0.00512400
N        9.98112000       3.52267000      47.18765000      -0.01444600      -0.00287800       0.02921000
N        9.83606000      12.60756000      47.15187000       0.02441800       0.00093900      -0.04836000
N        3.67226000       8.26582000      47.37269000      -0.00219100       0.00468800      -0.00589500
N        3.66024000      17.31465000      47.37344000       0.00082800      -0.00910400       0.00381200
N       12.68973000       8.30972000      47.31553000      -0.00631200      -0.00485200      -0.00791500
N       12.77230000      17.44564000      47.76121000      -0.01957100      -0.02020700      -0.00801200
N        8.35400000       5.03791000      47.87061000      -0.03822000       0.00846000       0.05294600
N        8.27760000      14.24108000      47.71543000       0.00232400      -0.01656800       0.06003100
N       17.38834000       5.02919000      48.02225000       0.00341900       0.00518600       0.02200700
N       17.26547000      14.33440000      47.44121000      -0.02632900       0.02428500       0.01378500
N        5.32238000       0.89344000      47.47334000       0.00443400      -0.00565000       0.01474300
N        5.33053000       9.90723000      47.40427000      -0.02293500      -0.01155600      -0.04017500
N       14.33825000       1.05150000      47.32384000      -0.02166600       0.00125300       0.01053300
N       14.33422000       9.96353000      47.24198000      -0.00511300      -0.00515800      -0.01040300
N       13.85238000       9.48363000      33.15012000      -0.05993800       0.04764200       0.05633700
I        8.90260000       0.11113000      34.71608000      -0.00145900      -0.01397800       0.00099400
I        8.94457000       8.98803000      34.55530000       0.00887800       0.00322700      -0.00001700
I       18.05210000       0.04608000      34.63854000      -0.00494300       0.01147300       0.00513100
I        0.16741000       8.81262000      34.51285000      -0.00062300      -0.00283800      -0.00350300
I        4.67087000       4.57473000      34.69271000      -0.00276400      -0.00451600       0.00148000
I        4.28721000      13.96390000      34.64534000       0.00122800      -0.02221400      -0.00278200
I       13.36157000       4.25701000      34.77926000       0.00517000      -0.00466200       0.00216300
I       13.06841000      14.09409000      34.63477000       0.00937500      -0.00354800       0.00229000
I        0.08631000       0.29232000      40.98776000       0.00446300      -0.00418400       0.00174800
I        0.05872000       9.25757000      40.89366000      -0.00917100      -0.00005000       0.00428200
I        9.05279000       0.20738000      41.09540000      -0.00541400      -0.00102800      -0.00554400
I        9.14187000       8.94389000      40.96600000      -0.01181800      -0.00298100      -0.00282600
I        4.56297000       4.42103000      41.06109000      -0.00783400      -0.00598800       0.00104400
I        4.69392000      13.26815000      40.98388000       0.00420400       0.00579200       0.00516900
I       13.38948000       4.56783000      41.09362000      -0.00489000       0.00629200      -0.01244500
I       13.77443000      13.29170000      40.91590000       0.00210900       0.00223400      -0.00420400
I        2.48553000       2.01073000      37.77919000       0.00445500      -0.00649700       0.00210000
I        2.42978000      11.09586000      37.86256000       0.00037100       0.01070300      -0.00207100
I       11.58832000       1.88513000      37.96234000       0.00767700      -0.00177600      -0.00350100
I       11.51142000      11.02919000      37.92161000      -0.00002800       0.00095300      -0.00085700
I        6.38877000       7.15489000      38.11997000      -0.00477100       0.01500800      -0.01203200
I        6.43864000      16.10793000      38.17848000       0.00203100       0.00448100       0.00414400
I       15.47515000       7.05174000      38.09969000       0.00298600      -0.00568100       0.00135600
I       15.46568000      16.10229000      37.98197000      -0.00316300       0.00341200       0.01145400
I        1.89309000       6.49366000      37.99044000      -0.00186200      -0.00088400       0.00203400
I        1.84780000      15.47857000      38.19550000      -0.00241200       0.00293100       0.01626000
I       10.72092000       6.29816000      37.78046000      -0.00098300       0.00300600       0.00658300
I       10.93640000      15.57167000      38.15091000       0.00831900      -0.00474500       0.01477200
I        7.04492000       2.62408000      38.22676000       0.00091700       0.00030100      -0.00071100
I        7.05751000      11.66748000      37.48222000       0.00861100       0.00728200      -0.01214700
I       15.96241000       2.52547000      38.11866000       0.00260300      -0.00901500      -0.00268700
I       16.07217000      11.68423000      37.25099000      -0.01152800       0.00301300       0.00173400
I       17.89975000      17.99643000      47.25279000      -0.00317900      -0.00766400      -0.00038600
I       17.94797000       8.66931000      47.19476000       0.00032300      -0.00318300      -0.00393500
I        8.94563000      17.86274000      47.34345000       0.00176400      -0.00688900       0.01146400
I        8.86247000       8.75481000      47.26498000       0.00921600      -0.00157000      -0.00292200
I        4.62690000       4.61611000      47.33346000       0.00140400      -0.00149200      -0.00770100
I        4.59755000      13.60798000      47.25920000      -0.00229600       0.00957000       0.00517400
I       13.70283000       4.63980000      47.37936000      -0.01931200       0.00201200      -0.00452700
I       13.43273000      13.89086000      47.18070000       0.00051300       0.01276200      -0.00071900
I        2.66512000       2.02493000      44.20172000       0.00966100      -0.00706400       0.01060200
I        2.43995000      11.25331000      44.16433000      -0.00480100      -0.00094600       0.00600000
I       11.84337000       1.87637000      44.27000000      -0.00289300       0.00376000      -0.00134000
I       11.54829000      11.13507000      44.11151000      -0.01181900       0.01295400      -0.00277600
I        6.43150000       7.22684000      43.99020000       0.00171700       0.00122600      -0.00398800
I        6.51705000      16.25891000      43.98811000      -0.00100900       0.00436800       0.01512100
I       15.56150000       7.14583000      43.77515000       0.00365500       0.00471000      -0.00238200
I       15.62664000      16.12807000      43.90223000      -0.00931300      -0.00694000      -0.00732800
I        2.00386000       6.51895000      44.15107000       0.00780400       0.00436800       0.00245800
I        2.14824000      15.72264000      44.17615000      -0.00054100       0.00341100      -0.00762100
I       11.08594000       6.58337000      44.27690000       0.00570200      -0.00195600       0.01230300
I       10.97063000      15.50435000      43.80803000      -0.02737000      -0.02885400       0.01581300