 vasp.6.3.0 20Jan22 (build May 24 2022 17:11:44) complex                         
 executed on              LinuxNV date 2024.05.26  10:59:43
 running on    2 total cores
 distrk:  each k-point on    2 cores,    1 groups
 distr:  one band on NCORE=   1 cores,    2 groups


--------------------------------------------------------------------------------------------------------


 INCAR:
   SYSTEM = PSC
   ISTART = 0
   ICHARG = 2
   PREC = Normal
   ENCUT = 500
   GGA_COMPAT = F
   NELM = 600
   EDIFFG = -0.07
   NSW = 2000
   IBRION = 2
   POTIM = 0.3
   ISIF = 2
   ISYM = 0
   LREAL = Auto
   OPTIM = 0.05
   ISMEAR = 0
   SIGMA = 0.05
   AMIN = 0.01
   BMIX = 0.01
   LVTOT = T
   LWAVE = F
   LDIPOL = T
   IDIPOL = 3
   NCORE = 4
   LVDW = T
   IVDW = 12
   ALGO = VERY_FASE

 POTCAR:    PAW_PBE H 15Jun2001                   
 POTCAR:    PAW_PBE C 08Apr2002                   
 POTCAR:    PAW_PBE N 08Apr2002                   
 POTCAR:    PAW_PBE I 08Apr2002                   
 POTCAR:    PAW_PBE Pb_d 06Sep2000                
 WARNING: For LVTOT=.TRUE., VASP.5.x writes the TOTAL local potential to the
     file LOCPOT. If you want only the Hartree contributions, use LVHAR=.TRUE.
     instead. 

 POTCAR:    PAW_PBE H 15Jun2001                   
   SHA256 =  030f79b5d3ab3cf0e668861823c8fb652ff669f3e15e46930bd03bfd63a607b6 H/POTCAR              
   COPYR  = (c) Copyright 15Jun2001 Georg Kresse                                                    
   COPYR  = This file is part of the software VASP. Any use, copying, and all other rights are regul
   COPYR  = If you do not have a valid VASP license, you may not use, copy or distribute this file. 
   VRHFIN =H: ultrasoft test                                                                        
   LEXCH  = PE                                                                                      
   EATOM  =    12.4884 eV,    0.9179 Ry                                                             
                                                                                                    
   TITEL  = PAW_PBE H 15Jun2001                                                                     
   LULTRA =        F    use ultrasoft PP ?                                                          
   IUNSCR =        0    unscreen: 0-lin 1-nonlin 2-no                                               
   RPACOR =    0.000    partial core radius                                                         
   POMASS =    1.000; ZVAL   =    1.000    mass and valenz                                          
   RCORE  =    1.100    outmost cutoff radius                                                       
   RWIGS  =    0.700; RWIGS  =    0.370    wigner-seitz radius (au A)                               
   ENMAX  =  250.000; ENMIN  =  200.000 eV                                                          
   RCLOC  =    0.701    cutoff for local pot                                                        
   LCOR   =        T    correct aug charges                                                         
   LPAW   =        T    paw PP                                                                      
   EAUG   =  400.000                                                                                
   RMAX   =    1.123    core radius for proj-oper                                                   
   RAUG   =    1.200    factor for augmentation sphere                                              
   RDEP   =    1.112    radius for radial grids                                                     
   RDEPT  =    0.926    core radius for aug-charge                                                  
                                                                                                    
   Atomic configuration                                                                             
    2 entries                                                                                       
     n  l   j            E        occ.                                                              
     1  0  0.50        -6.4927   1.0000                                                             
     2  1  0.50        -3.4015   0.0000                                                             
   Description                                                                                      
     l       E           TYP  RCUT    TYP  RCUT                                                     
     0     -6.4927494     23  1.100                                                                 
     0      6.8029130     23  1.100                                                                 
     1     -4.0817478     23  1.100                                                                 
  local pseudopotential read in
  atomic valenz-charges read in
  non local Contribution for L=            0  read in
    real space projection operators read in
  non local Contribution for L=            0  read in
    real space projection operators read in
  non local Contribution for L=            1  read in
    real space projection operators read in
    PAW grid and wavefunctions read in
 
   number of l-projection  operators is LMAX  =            3
   number of lm-projection operators is LMMAX =            5
 
 POTCAR:    PAW_PBE C 08Apr2002                   
   SHA256 =  253f7b50bb8d59471dbedb8285d89021f4a42ed1a2c5d38a03a736e69125dd95 C/POTCAR              
   COPYR  = (c) Copyright 08Apr2002 Georg Kresse                                                    
   COPYR  = This file is part of the software VASP. Any use, copying, and all other rights are regul
   COPYR  = If you do not have a valid VASP license, you may not use, copy or distribute this file. 
   VRHFIN =C: s2p2                                                                                  
   LEXCH  = PE                                                                                      
   EATOM  =   147.1560 eV,   10.8157 Ry                                                             
                                                                                                    
   TITEL  = PAW_PBE C 08Apr2002                                                                     
   LULTRA =        F    use ultrasoft PP ?                                                          
   IUNSCR =        1    unscreen: 0-lin 1-nonlin 2-no                                               
   RPACOR =    1.200    partial core radius                                                         
   POMASS =   12.011; ZVAL   =    4.000    mass and valenz                                          
   RCORE  =    1.500    outmost cutoff radius                                                       
   RWIGS  =    1.630; RWIGS  =    0.863    wigner-seitz radius (au A)                               
   ENMAX  =  400.000; ENMIN  =  300.000 eV                                                          
   ICORE  =        2    local potential                                                             
   LCOR   =        T    correct aug charges                                                         
   LPAW   =        T    paw PP                                                                      
   EAUG   =  644.873                                                                                
   DEXC   =    0.000                                                                                
   RMAX   =    1.529    core radius for proj-oper                                                   
   RAUG   =    1.300    factor for augmentation sphere                                              
   RDEP   =    1.501    radius for radial grids                                                     
   RDEPT  =    1.300    core radius for aug-charge                                                  
                                                                                                    
   Atomic configuration                                                                             
    4 entries                                                                                       
     n  l   j            E        occ.                                                              
     1  0  0.50      -273.3789   2.0000                                                             
     2  0  0.50       -13.7508   2.0000                                                             
     2  1  0.50        -5.2854   2.0000                                                             
     3  2  1.50        -5.4423   0.0000                                                             
   Description                                                                                      
     l       E           TYP  RCUT    TYP  RCUT                                                     
     0    -13.7508458     23  1.200                                                                 
     0     -8.2022199     23  1.200                                                                 
     1     -5.2854383     23  1.500                                                                 
     1     34.0145650     23  1.500                                                                 
     2     -5.4423304      7  1.500                                                                 
  local pseudopotential read in
  partial core-charges read in
  partial kinetic energy density read in
  atomic valenz-charges read in
  non local Contribution for L=            0  read in
    real space projection operators read in
  non local Contribution for L=            0  read in
    real space projection operators read in
  non local Contribution for L=            1  read in
    real space projection operators read in
  non local Contribution for L=            1  read in
    real space projection operators read in
    PAW grid and wavefunctions read in
 
   number of l-projection  operators is LMAX  =            4
   number of lm-projection operators is LMMAX =            8
 
 POTCAR:    PAW_PBE N 08Apr2002                   
   SHA256 =  e053789ff3a61a86a1b75d8a110fcc91f86041011e7b0817c7c99e4e8a6349d7 N/POTCAR              
   COPYR  = (c) Copyright 08Apr2002 Georg Kresse                                                    
   COPYR  = This file is part of the software VASP. Any use, copying, and all other rights are regul
   COPYR  = If you do not have a valid VASP license, you may not use, copy or distribute this file. 
   VRHFIN =N: s2p3                                                                                  
   LEXCH  = PE                                                                                      
   EATOM  =   264.5486 eV,   19.4438 Ry                                                             
                                                                                                    
   TITEL  = PAW_PBE N 08Apr2002                                                                     
   LULTRA =        F    use ultrasoft PP ?                                                          
   IUNSCR =        1    unscreen: 0-lin 1-nonlin 2-no                                               
   RPACOR =    1.200    partial core radius                                                         
   POMASS =   14.001; ZVAL   =    5.000    mass and valenz                                          
   RCORE  =    1.500    outmost cutoff radius                                                       
   RWIGS  =    1.400; RWIGS  =    0.741    wigner-seitz radius (au A)                               
   ENMAX  =  400.000; ENMIN  =  300.000 eV                                                          
   ICORE  =        2    local potential                                                             
   LCOR   =        T    correct aug charges                                                         
   LPAW   =        T    paw PP                                                                      
   EAUG   =  627.112                                                                                
   DEXC   =    0.000                                                                                
   RMAX   =    1.529    core radius for proj-oper                                                   
   RAUG   =    1.300    factor for augmentation sphere                                              
   RDEP   =    1.514    radius for radial grids                                                     
   RDEPT  =    1.338    core radius for aug-charge                                                  
                                                                                                    
   Atomic configuration                                                                             
    4 entries                                                                                       
     n  l   j            E        occ.                                                              
     1  0  0.50      -384.7179   2.0000                                                             
     2  0  0.50       -18.5828   2.0000                                                             
     2  1  0.50        -7.0898   3.0000                                                             
     3  2  1.50        -6.8029   0.0000                                                             
   Description                                                                                      
     l       E           TYP  RCUT    TYP  RCUT                                                     
     0    -18.5828119     23  1.200                                                                 
     0    -13.5018863     23  1.200                                                                 
     1     -7.0897853     23  1.500                                                                 
     1      9.5240782     23  1.500                                                                 
     2     -6.8029130      7  1.500                                                                 
  local pseudopotential read in
  partial core-charges read in
  partial kinetic energy density read in
  atomic valenz-charges read in
  non local Contribution for L=            0  read in
    real space projection operators read in
  non local Contribution for L=            0  read in
    real space projection operators read in
  non local Contribution for L=            1  read in
    real space projection operators read in
  non local Contribution for L=            1  read in
    real space projection operators read in
    PAW grid and wavefunctions read in
 
   number of l-projection  operators is LMAX  =            4
   number of lm-projection operators is LMMAX =            8
 
 POTCAR:    PAW_PBE I 08Apr2002                   
   SHA256 =  e40f3f59b681c1fc3e3091736183c4589116986673d2b852a5012aec72758799 I/POTCAR              
   COPYR  = (c) Copyright 08Apr2002 Georg Kresse                                                    
   COPYR  = This file is part of the software VASP. Any use, copying, and all other rights are regul
   COPYR  = If you do not have a valid VASP license, you may not use, copy or distribute this file. 
   VRHFIN =I : s2p5                                                                                 
   LEXCH  = PE                                                                                      
   EATOM  =   315.8678 eV,   23.2156 Ry                                                             
                                                                                                    
   TITEL  = PAW_PBE I 08Apr2002                                                                     
   LULTRA =        F    use ultrasoft PP ?                                                          
   IUNSCR =        1    unscreen: 0-lin 1-nonlin 2-no                                               
   RPACOR =    2.200    partial core radius                                                         
   POMASS =  126.904; ZVAL   =    7.000    mass and valenz                                          
   RCORE  =    2.300    outmost cutoff radius                                                       
   RWIGS  =    2.810; RWIGS  =    1.487    wigner-seitz radius (au A)                               
   ENMAX  =  175.647; ENMIN  =  131.735 eV                                                          
   ICORE  =        3    local potential                                                             
   LCOR   =        T    correct aug charges                                                         
   LPAW   =        T    paw PP                                                                      
   EAUG   =  370.139                                                                                
   DEXC   =    0.000                                                                                
   RMAX   =    2.359    core radius for proj-oper                                                   
   RAUG   =    1.300    factor for augmentation sphere                                              
   RDEP   =    2.392    radius for radial grids                                                     
   RDEPT  =    2.170    core radius for aug-charge                                                  
                                                                                                    
   Atomic configuration                                                                             
   13 entries                                                                                       
     n  l   j            E        occ.                                                              
     1  0  0.50    -32976.3739   2.0000                                                             
     2  0  0.50     -5094.5933   2.0000                                                             
     2  1  1.50     -4572.0131   6.0000                                                             
     3  0  0.50     -1028.2813   2.0000                                                             
     3  1  1.50      -859.0250   6.0000                                                             
     3  2  2.50      -605.7620  10.0000                                                             
     4  0  0.50      -180.5540   2.0000                                                             
     4  1  1.50      -127.5306   6.0000                                                             
     4  2  2.50       -50.2720  10.0000                                                             
     5  0  0.50       -17.4058   2.0000                                                             
     5  1  0.50        -7.0851   5.0000                                                             
     5  2  1.50        -7.0750   0.0000                                                             
     4  3  2.50        -7.0750   0.0000                                                             
   Description                                                                                      
     l       E           TYP  RCUT    TYP  RCUT                                                     
     0    -17.4058016     23  2.300                                                                 
     0    -18.7663842     23  2.300                                                                 
     1     -7.0850686     23  2.300                                                                 
     1     -4.2150896     23  2.300                                                                 
     2     -7.0750295     23  2.300                                                                 
     3     -1.3605826     23  2.300                                                                 
  local pseudopotential read in
  partial core-charges read in
  partial kinetic energy density read in
  atomic valenz-charges read in
  non local Contribution for L=            0  read in
    real space projection operators read in
  non local Contribution for L=            0  read in
    real space projection operators read in
  non local Contribution for L=            1  read in
    real space projection operators read in
  non local Contribution for L=            1  read in
    real space projection operators read in
  non local Contribution for L=            2  read in
    real space projection operators read in
    PAW grid and wavefunctions read in
 
   number of l-projection  operators is LMAX  =            5
   number of lm-projection operators is LMMAX =           13
 
 POTCAR:    PAW_PBE Pb_d 06Sep2000                
   SHA256 =  fb885b08f0fba73a15f6a6b0e39bd200c13ec96ef97cf3ecd8e63bade5137abd Pb_d/POTCAR           
   COPYR  = (c) Copyright 06Sep2000 Georg Kresse                                                    
   COPYR  = This file is part of the software VASP. Any use, copying, and all other rights are regul
   COPYR  = If you do not have a valid VASP license, you may not use, copy or distribute this file. 
   VRHFIN =Pb:                                                                                      
   LEXCH  = PE                                                                                      
   EATOM  =  1661.6185 eV,  122.1255 Ry                                                             
                                                                                                    
   TITEL  = PAW_PBE Pb_d 06Sep2000                                                                  
   LULTRA =        F    use ultrasoft PP ?                                                          
   IUNSCR =        1    unscreen: 0-lin 1-nonlin 2-no                                               
   RPACOR =    2.200    partial core radius                                                         
   POMASS =  207.200; ZVAL   =   14.000    mass and valenz                                          
   RCORE  =    2.500    outmost cutoff radius                                                       
   RWIGS  =    3.260; RWIGS  =    1.725    wigner-seitz radius (au A)                               
   ENMAX  =  237.835; ENMIN  =  178.376 eV                                                          
   ICORE  =        3    local potential                                                             
   LCOR   =        T    correct aug charges                                                         
   LPAW   =        T    paw PP                                                                      
   EAUG   =  391.914                                                                                
   DEXC   =    0.000                                                                                
   RMAX   =    2.565    core radius for proj-oper                                                   
   RAUG   =    1.300    factor for augmentation sphere                                              
   RDEP   =    2.643    radius for radial grids                                                     
   RDEPT  =    2.092    core radius for aug-charge                                                  
                                                                                                    
   Atomic configuration                                                                             
   16 entries                                                                                       
     n  l   j            E        occ.                                                              
     1  0  0.50    -88091.8466   2.0000                                                             
     2  0  0.50    -15753.4197   2.0000                                                             
     2  1  1.50    -13508.1797   6.0000                                                             
     3  0  0.50     -3781.7194   2.0000                                                             
     3  1  1.50     -3138.2529   6.0000                                                             
     3  2  2.50     -2483.2977  10.0000                                                             
     4  0  0.50      -856.2895   2.0000                                                             
     4  1  1.50      -645.4942   6.0000                                                             
     4  2  2.50      -401.8768  10.0000                                                             
     4  3  3.50      -132.9059  14.0000                                                             
     5  0  0.50      -144.0950   2.0000                                                             
     5  1  1.50       -85.7879   6.0000                                                             
     5  2  2.50       -21.1769  10.0000                                                             
     6  0  0.50       -12.0372   2.0000                                                             
     6  1  1.50        -3.4971   2.0000                                                             
     5  3  2.50        -2.7212   0.0000                                                             
   Description                                                                                      
     l       E           TYP  RCUT    TYP  RCUT                                                     
     2    -21.1768523     23  2.500                                                                 
     2      1.3605826     23  2.500                                                                 
     0    -12.0371562     23  2.500                                                                 
     0     13.6058260     23  2.500                                                                 
     1     -3.4971339     23  2.500                                                                 
     1     13.6058260     23  2.500                                                                 
     3     -1.3605826      7  2.500                                                                 
  local pseudopotential read in
  partial core-charges read in
  partial kinetic energy density read in
  atomic valenz-charges read in
  non local Contribution for L=            2  read in
    real space projection operators read in
  non local Contribution for L=            2  read in
    real space projection operators read in
  non local Contribution for L=            0  read in
    real space projection operators read in
  non local Contribution for L=            0  read in
    real space projection operators read in
  non local Contribution for L=            1  read in
    real space projection operators read in
  non local Contribution for L=            1  read in
    real space projection operators read in
    PAW grid and wavefunctions read in
 
   number of l-projection  operators is LMAX  =            6
   number of lm-projection operators is LMMAX =           18
 
 Optimization of the real space projectors (new method)

 maximal supplied QI-value         = 34.20
 optimisation between [QCUT,QGAM] = [ 11.29, 22.57] = [ 35.68,142.71] Ry 
 Optimized for a Real-space Cutoff    1.16 Angstroem

   l    n(q)    QCUT    max X(q) W(low)/X(q) W(high)/X(q)  e(spline) 
   0      8    11.287    19.460    0.40E-03    0.73E-03    0.16E-06
   0      8    11.287    12.209    0.38E-03    0.70E-03    0.15E-06
   1      7    11.287     4.655    0.22E-03    0.25E-04    0.22E-06
 Optimization of the real space projectors (new method)

 maximal supplied QI-value         = 25.13
 optimisation between [QCUT,QGAM] = [ 11.31, 22.87] = [ 35.82,146.48] Ry 
 Optimized for a Real-space Cutoff    1.00 Angstroem

   l    n(q)    QCUT    max X(q) W(low)/X(q) W(high)/X(q)  e(spline) 
   0      7    11.310   115.676    0.43E-03    0.13E-02    0.19E-06
   0      7    11.310    87.132    0.43E-03    0.13E-02    0.18E-06
   1      6    11.310     4.429    0.42E-03    0.74E-03    0.11E-06
   1      6    11.310     2.733    0.34E-03    0.55E-03    0.92E-07
 Optimization of the real space projectors (new method)

 maximal supplied QI-value         = 25.13
 optimisation between [QCUT,QGAM] = [ 11.31, 22.87] = [ 35.82,146.48] Ry 
 Optimized for a Real-space Cutoff    1.27 Angstroem

   l    n(q)    QCUT    max X(q) W(low)/X(q) W(high)/X(q)  e(spline) 
   0      9    11.310    79.467    0.75E-04    0.16E-03    0.36E-06
   0      9    11.310    66.151    0.74E-04    0.16E-03    0.36E-06
   1      8    11.310    17.416    0.35E-03    0.12E-03    0.95E-06
   1      8    11.310    12.382    0.37E-03    0.13E-03    0.98E-06
 Optimization of the real space projectors (new method)

 maximal supplied QI-value         = 16.25
 optimisation between [QCUT,QGAM] = [ 11.38, 22.75] = [ 36.24,144.96] Ry 
 Optimized for a Real-space Cutoff    1.31 Angstroem

   l    n(q)    QCUT    max X(q) W(low)/X(q) W(high)/X(q)  e(spline) 
   0      9    11.376   194.483    0.24E-03    0.23E-03    0.67E-07
   0      9    11.376   190.334    0.23E-03    0.22E-03    0.65E-07
   1      8    11.376   116.687    0.25E-03    0.63E-04    0.16E-06
   1      8    11.376    88.696    0.25E-03    0.61E-04    0.16E-06
   2      8    11.376     4.877    0.17E-03    0.14E-03    0.29E-07
 Optimization of the real space projectors (new method)

 maximal supplied QI-value         = 15.12
 optimisation between [QCUT,QGAM] = [ 11.34, 22.83] = [ 36.00,145.93] Ry 
 Optimized for a Real-space Cutoff    1.39 Angstroem

   l    n(q)    QCUT    max X(q) W(low)/X(q) W(high)/X(q)  e(spline) 
   2      9    11.338     3.846    0.11E-03    0.20E-03    0.77E-07
   2      9    11.338     8.593    0.65E-04    0.17E-03    0.19E-06
   0      9    11.338    20.082    0.80E-04    0.11E-04    0.85E-07
   0      9    11.338     8.597    0.11E-03    0.16E-04    0.12E-06
   1      9    11.338    33.223    0.32E-04    0.22E-03    0.16E-06
   1      9    11.338    15.899    0.28E-04    0.20E-03    0.15E-06
  PAW_PBE H 15Jun2001                   :
 energy of atom  1       EATOM=  -12.4884
 kinetic energy error for atom=    0.0020 (will be added to EATOM!!)
  PAW_PBE C 08Apr2002                   :
 energy of atom  2       EATOM= -147.1560
 kinetic energy error for atom=    0.0076 (will be added to EATOM!!)
  PAW_PBE N 08Apr2002                   :
 energy of atom  3       EATOM= -264.5486
 kinetic energy error for atom=    0.0138 (will be added to EATOM!!)
  PAW_PBE I 08Apr2002                   :
 energy of atom  4       EATOM= -315.8678
 kinetic energy error for atom=    0.0009 (will be added to EATOM!!)
  PAW_PBE Pb_d 06Sep2000                :
 energy of atom  5       EATOM=-1661.6185
 kinetic energy error for atom=    0.0047 (will be added to EATOM!!)
 
 
 POSCAR: H    C    N    I    Pb
  positions in direct lattice
  velocities in cartesian coordinates
 exchange correlation table for  LEXCH =        8
   RHO(1)=    0.500       N(1)  =     2000
   RHO(2)=  100.500       N(2)  =     4000
 


--------------------------------------------------------------------------------------------------------


 ion  position               nearest neighbor table
   1  0.489  0.343  0.564- 187 1.02
   2  0.406  0.780  0.567- 188 1.02
   3  0.930  0.221  0.578- 189 1.03
   4  0.916  0.776  0.570- 190 1.02
   5  0.274  0.095  0.567- 194 1.02
   6  0.315  0.603  0.563- 195 1.02
   7  0.783  0.097  0.564- 196 1.03
   8  0.117  0.230  0.556- 183 1.03
   9  0.102  0.708  0.562- 184 1.02
  10  0.547  0.147  0.563- 185 1.02
  11  0.591  0.701  0.564- 186 1.02
  12  0.358  0.051  0.561- 194 1.03
  13  0.229  0.602  0.551- 195 1.02
  14  0.863  0.047  0.557- 196 1.03
  15  0.055  0.168  0.568- 183 1.02
  16  0.014  0.678  0.570- 184 1.02
  17  0.586  0.236  0.565- 185 1.02
  18  0.499  0.675  0.570- 186 1.02
  19  0.306  0.486  0.577- 148 1.09
  20  0.166  0.006  0.574- 192 1.03
  21  0.673  0.016  0.574- 193 1.02
  22  0.398  0.312  0.561- 187 1.02
  23  0.444  0.867  0.561- 188 1.02
  24  0.917  0.314  0.572- 189 1.02
  25  0.946  0.864  0.561- 190 1.02
  26  0.198  0.419  0.575- 191 1.02
  27  0.186  0.913  0.569- 192 1.02
  28  0.683  0.922  0.568- 193 1.02
  29  0.427  0.190  0.560- 146 1.09
  30  0.562  0.822  0.558- 147 1.09
  31  0.032  0.327  0.556- 144 1.10
  32  0.063  0.825  0.554- 145 1.09
  33  0.152  0.483  0.559- 191 1.03
  34  0.307  0.935  0.560- 149 1.09
  35  0.803  0.934  0.557- 150 1.09
  36  0.407  0.262  0.657- 205 1.02
  37  0.481  0.817  0.675- 206 1.02
  38  0.945  0.325  0.670- 207 1.03
  39  0.997  0.757  0.684- 152 1.09
  40  0.309  0.024  0.677- 209 1.02
  41  0.316  0.505  0.676- 210 1.02
  42  0.787  0.047  0.679- 211 1.02
  43  0.844  0.503  0.659- 212 1.02
  44  0.077  0.174  0.663- 197 1.02
  45  0.064  0.711  0.642- 198 1.02
  46  0.601  0.197  0.660- 199 1.02
  47  0.570  0.668  0.645- 200 1.02
  48  0.164  0.429  0.645- 201 1.02
  49  0.167  0.925  0.647- 202 1.02
  50  0.648  0.451  0.657- 203 1.02
  51  0.674  0.925  0.645- 204 1.02
  52  0.046  0.236  0.682- 197 1.02
  53  0.083  0.680  0.668- 198 1.02
  54  0.512  0.160  0.659- 199 1.02
  55  0.569  0.708  0.670- 200 1.02
  56  0.234  0.402  0.662- 201 1.02
  57  0.202  0.932  0.673- 202 1.02
  58  0.736  0.409  0.659- 203 1.02
  59  0.689  0.947  0.672- 204 1.02
  60  0.442  0.352  0.657- 205 1.02
  61  0.423  0.834  0.653- 206 1.02
  62  0.926  0.324  0.643- 207 1.02
  63  0.926  0.838  0.664- 208 1.02
  64  0.329  0.076  0.654- 209 1.02
  65  0.298  0.594  0.666- 210 1.02
  66  0.832  0.079  0.656- 211 1.02
  67  0.816  0.596  0.657- 212 1.02
  68  0.007  0.226  0.636- 151 1.09
  69  0.965  0.813  0.640- 208 1.02
  70  0.563  0.318  0.659- 153 1.09
  71  0.475  0.742  0.632- 154 1.09
  72  0.242  0.018  0.633- 156 1.09
  73  0.199  0.553  0.645- 155 1.09
  74  0.764  0.006  0.633- 158 1.09
  75  0.693  0.569  0.656- 157 1.09
  76  0.457  0.257  0.781- 221 1.02
  77  0.453  0.771  0.779- 222 1.02
  78  0.955  0.249  0.782- 223 1.03
  79  0.949  0.789  0.775- 224 1.02
  80  0.294  0.056  0.776- 225 1.02
  81  0.300  0.551  0.775- 226 1.02
  82  0.781  0.090  0.770- 227 1.02
  83  0.796  0.560  0.772- 228 1.02
  84  0.085  0.184  0.742- 213 1.02
  85  0.083  0.675  0.746- 214 1.02
  86  0.585  0.175  0.743- 215 1.02
  87  0.577  0.675  0.743- 216 1.02
  88  0.170  0.426  0.749- 217 1.02
  89  0.173  0.925  0.749- 218 1.02
  90  0.670  0.425  0.749- 219 1.02
  91  0.690  0.914  0.761- 220 1.02
  92  0.059  0.169  0.769- 213 1.02
  93  0.051  0.691  0.772- 214 1.02
  94  0.561  0.172  0.770- 215 1.03
  95  0.551  0.677  0.770- 216 1.02
  96  0.200  0.451  0.774- 217 1.02
  97  0.193  0.956  0.774- 218 1.02
  98  0.696  0.462  0.773- 219 1.02
  99  0.686  0.991  0.778- 220 1.03
 100  0.431  0.324  0.763- 221 1.02
 101  0.429  0.834  0.759- 222 1.02
 102  0.934  0.326  0.767- 223 1.02
 103  0.925  0.832  0.752- 224 1.02
 104  0.331  0.082  0.751- 225 1.02
 105  0.328  0.582  0.750- 226 1.02
 106  0.834  0.078  0.748- 227 1.02
 107  0.829  0.582  0.747- 228 1.02
 108  0.011  0.288  0.739- 161 1.09
 109  0.007  0.763  0.731- 162 1.09
 110  0.507  0.275  0.736- 159 1.09
 111  0.504  0.775  0.734- 160 1.09
 112  0.258  0.001  0.732- 163 1.09
 113  0.248  0.506  0.731- 164 1.09
 114  0.781  0.964  0.739- 165 1.09
 115  0.753  0.497  0.730- 166 1.09
 116  0.703  0.428  0.526- 173 1.10
 117  0.738  0.469  0.502- 173 1.09
 118  0.653  0.542  0.536- 174 1.10
 119  0.709  0.622  0.539- 174 1.10
 120  0.838  0.486  0.555- 175 1.10
 121  0.787  0.566  0.562- 175 1.09
 122  0.881  0.526  0.524- 176 1.10
 123  0.824  0.561  0.503- 176 1.10
 124  0.867  0.423  0.512- 177 1.10
 125  0.830  0.382  0.535- 177 1.10
 126  0.843  0.287  0.509- 178 1.10
 127  0.748  0.302  0.513- 178 1.10
 128  0.663  0.553  0.496- 179 1.10
 129  0.718  0.635  0.499- 179 1.10
 130  0.625  0.632  0.509- 179 1.10
 131  0.740  0.465  0.583- 180 1.10
 132  0.726  0.407  0.560- 180 1.10
 133  0.669  0.487  0.564- 180 1.10
 134  0.808  0.680  0.525- 181 1.10
 135  0.902  0.658  0.520- 181 1.10
 136  0.863  0.642  0.545- 181 1.09
 137  0.839  0.362  0.475- 182 1.10
 138  0.790  0.279  0.475- 182 1.10
 139  0.646  0.306  0.492- 168 1.09
 140  0.780  0.454  0.455- 169 1.09
 141  0.533  0.373  0.481- 170 1.09
 142  0.667  0.521  0.443- 171 1.09
 143  0.543  0.481  0.457- 172 1.09
 144  0.015  0.273  0.562-  31 1.10 189 1.31 183 1.32
 145  0.023  0.785  0.560-  32 1.09 184 1.31 190 1.31
 146  0.472  0.230  0.562-  29 1.09 187 1.31 185 1.31
 147  0.518  0.783  0.561-  30 1.09 186 1.31 188 1.31
 148  0.260  0.508  0.567-  19 1.09 191 1.31 195 1.31
 149  0.272  0.982  0.564-  34 1.09 192 1.31 194 1.31
 150  0.772  0.984  0.561-  35 1.09 196 1.31 193 1.31
 151  0.002  0.248  0.652-  68 1.09 207 1.31 197 1.31
 152  0.004  0.758  0.666-  39 1.09 208 1.31 198 1.31
 153  0.521  0.275  0.658-  70 1.09 205 1.31 199 1.31
 154  0.495  0.750  0.648-  71 1.09 206 1.31 200 1.31
 155  0.230  0.513  0.655-  73 1.09 210 1.31 201 1.31
 156  0.248  0.002  0.650-  72 1.09 202 1.31 209 1.31
 157  0.732  0.523  0.657-  75 1.09 212 1.31 203 1.31
 158  0.753  0.002  0.650-  74 1.09 204 1.31 211 1.31
 159  0.507  0.250  0.752- 110 1.09 221 1.31 215 1.31
 160  0.502  0.755  0.750- 111 1.09 222 1.31 216 1.31
 161  0.009  0.256  0.754- 108 1.09 223 1.31 213 1.31
 162  0.003  0.753  0.748- 109 1.09 224 1.31 214 1.31
 163  0.252  0.003  0.749- 112 1.09 218 1.31 225 1.31
 164  0.249  0.504  0.749- 113 1.09 226 1.31 217 1.31
 165  0.761  0.995  0.753- 114 1.09 220 1.31 227 1.31
 166  0.750  0.503  0.747- 115 1.09 228 1.31 219 1.31
 167  0.721  0.375  0.474- 169 1.40 168 1.40 182 1.51
 168  0.651  0.353  0.481- 139 1.09 170 1.39 167 1.40
 169  0.726  0.436  0.460- 140 1.09 171 1.40 167 1.40
 170  0.587  0.391  0.475- 141 1.09 168 1.39 172 1.40
 171  0.662  0.474  0.454- 142 1.09 172 1.40 169 1.40
 172  0.592  0.452  0.461- 143 1.09 171 1.40 170 1.40
 173  0.753  0.453  0.519- 117 1.09 116 1.10 229 1.52 177 1.52
 174  0.698  0.574  0.529- 118 1.10 119 1.10 179 1.52 229 1.53
 175  0.783  0.511  0.554- 121 1.09 120 1.10 180 1.52 229 1.53
 176  0.834  0.562  0.520- 122 1.10 123 1.10 181 1.51 229 1.52
 177  0.817  0.398  0.519- 124 1.10 125 1.10 173 1.52 178 1.54
 178  0.798  0.327  0.506- 127 1.10 126 1.10 177 1.54 182 1.54
 179  0.676  0.599  0.507- 129 1.10 130 1.10 128 1.10 174 1.52
 180  0.725  0.465  0.566- 133 1.10 131 1.10 132 1.10 175 1.52
 181  0.851  0.640  0.528- 136 1.09 134 1.10 135 1.10 176 1.51
 182  0.790  0.335  0.482- 137 1.10 138 1.10 167 1.51 178 1.54
 183  0.063  0.219  0.561-  15 1.02   8 1.03 144 1.32
 184  0.046  0.717  0.563-   9 1.02  16 1.02 145 1.31
 185  0.540  0.204  0.563-  10 1.02  17 1.02 146 1.31
 186  0.536  0.713  0.564-  11 1.02  18 1.02 147 1.31
 187  0.453  0.300  0.562-  22 1.02   1 1.02 146 1.31
 188  0.450  0.810  0.563-   2 1.02  23 1.02 147 1.31
 189  0.948  0.267  0.570-  24 1.02   3 1.03 144 1.31
 190  0.955  0.809  0.563-   4 1.02  25 1.02 145 1.31
 191  0.201  0.466  0.566-  26 1.02  33 1.03 148 1.31
 192  0.202  0.967  0.569-  27 1.02  20 1.03 149 1.31
 193  0.703  0.975  0.567-  28 1.02  21 1.02 150 1.31
 194  0.302  0.048  0.564-   5 1.02  12 1.03 149 1.31
 195  0.270  0.573  0.558-  13 1.02   6 1.02 148 1.31
 196  0.808  0.047  0.560-  14 1.03   7 1.03 150 1.31
 197  0.044  0.218  0.667-  44 1.02  52 1.02 151 1.31
 198  0.053  0.713  0.658-  45 1.02  53 1.02 152 1.31
 199  0.545  0.206  0.659-  46 1.02  54 1.02 153 1.31
 200  0.548  0.706  0.655-  55 1.02  47 1.02 154 1.31
 201  0.207  0.444  0.655-  48 1.02  56 1.02 155 1.31
 202  0.204  0.949  0.657-  49 1.02  57 1.02 156 1.31
 203  0.704  0.456  0.658-  58 1.02  50 1.02 157 1.31
 204  0.703  0.955  0.656-  59 1.02  51 1.02 158 1.31
 205  0.452  0.296  0.658-  60 1.02  36 1.02 153 1.31
 206  0.464  0.803  0.659-  61 1.02  37 1.02 154 1.31
 207  0.955  0.303  0.655-  62 1.02  38 1.03 151 1.31
 208  0.962  0.805  0.656-  69 1.02  63 1.02 152 1.31
 209  0.297  0.037  0.662-  64 1.02  40 1.02 156 1.31
 210  0.287  0.538  0.666-  65 1.02  41 1.02 155 1.31
 211  0.793  0.046  0.662-  66 1.02  42 1.02 158 1.31
 212  0.802  0.541  0.658-  43 1.02  67 1.02 157 1.31
 213  0.052  0.198  0.755-  84 1.02  92 1.02 161 1.31
 214  0.048  0.703  0.756-  85 1.02  93 1.02 162 1.31
 215  0.553  0.195  0.755-  86 1.02  94 1.03 159 1.31
 216  0.545  0.698  0.755-  87 1.02  95 1.02 160 1.31
 217  0.203  0.458  0.758-  88 1.02  96 1.02 164 1.31
 218  0.203  0.959  0.758-  89 1.02  97 1.02 163 1.31
 219  0.703  0.460  0.757-  90 1.02  98 1.02 166 1.31
 220  0.707  0.966  0.764-  91 1.02  99 1.03 165 1.31
 221  0.463  0.279  0.766- 100 1.02  76 1.02 159 1.31
 222  0.459  0.788  0.764- 101 1.02  77 1.02 160 1.31
 223  0.963  0.278  0.769- 102 1.02  78 1.03 161 1.31
 224  0.956  0.794  0.759- 103 1.02  79 1.02 162 1.31
 225  0.295  0.049  0.760- 104 1.02  80 1.02 163 1.31
 226  0.295  0.548  0.759- 105 1.02  81 1.02 164 1.31
 227  0.794  0.058  0.757- 106 1.02  82 1.02 165 1.31
 228  0.794  0.552  0.756- 107 1.02  83 1.02 166 1.31
 229  0.767  0.525  0.531- 173 1.52 176 1.52 174 1.53 175 1.53
 230  0.493  0.006  0.556- 304 3.23
 231  0.495  0.498  0.553- 305 3.09
 232  1.000  0.003  0.554- 302 3.21
 233  0.009  0.488  0.552- 303 3.20
 234  0.259  0.253  0.555- 306 3.18
 235  0.238  0.773  0.554- 307 3.22
 236  0.740  0.236  0.557- 308 3.10
 237  0.724  0.780  0.554- 309 3.17
 238  0.005  0.016  0.656- 310 3.12 302 3.16
 239  0.003  0.513  0.654- 311 3.16 303 3.21
 240  0.501  0.011  0.658- 312 3.13 304 3.16
 241  0.506  0.495  0.656- 313 3.16 305 3.32
 242  0.253  0.245  0.657- 314 3.14 306 3.20
 243  0.260  0.735  0.656- 307 3.17 315 3.17
 244  0.741  0.253  0.658- 316 3.13 308 3.22
 245  0.763  0.736  0.655- 317 3.13 309 3.21
 246  0.138  0.111  0.605- 302 3.26 306 3.31
 247  0.135  0.614  0.606- 307 3.22 303 3.25
 248  0.642  0.104  0.608- 308 3.20 304 3.21
 249  0.638  0.611  0.607- 309 3.21 305 3.22
 250  0.354  0.396  0.610- 306 3.16 305 3.25
 251  0.357  0.892  0.611- 307 3.21 304 3.23
 252  0.857  0.390  0.610- 303 3.22 308 3.29
 253  0.857  0.891  0.608- 302 3.19 309 3.23
 254  0.105  0.360  0.608- 303 3.26 306 3.26
 255  0.103  0.857  0.611- 307 3.23 302 3.28
 256  0.594  0.349  0.605- 308 3.15 305 3.18
 257  0.606  0.862  0.611- 309 3.21 304 3.26
 258  0.390  0.145  0.612- 304 3.19 306 3.21
 259  0.391  0.646  0.600- 307 3.26 305 3.33
 260  0.884  0.140  0.610- 302 3.21 308 3.32
 261  0.890  0.647  0.596- 303 3.27 309 3.29
 262  0.991  0.996  0.756- 318 3.03 310 3.17
 263  0.994  0.480  0.755- 319 3.03 311 3.18
 264  0.496  0.989  0.758- 320 3.03 312 3.14
 265  0.491  0.485  0.756- 321 3.02 313 3.17
 266  0.256  0.256  0.757- 322 3.02 314 3.14
 267  0.255  0.753  0.756- 323 3.02 315 3.13
 268  0.759  0.257  0.758- 324 3.02 316 3.17
 269  0.744  0.769  0.755- 325 3.04 317 3.17
 270  0.148  0.112  0.707- 310 3.19 314 3.23
 271  0.135  0.623  0.707- 311 3.21 315 3.29
 272  0.656  0.104  0.708- 312 3.18 316 3.27
 273  0.640  0.616  0.706- 313 3.20 317 3.23
 274  0.356  0.400  0.704- 314 3.20 313 3.24
 275  0.361  0.900  0.704- 315 3.18 312 3.30
 276  0.862  0.396  0.701- 316 3.21 311 3.24
 277  0.865  0.893  0.703- 317 3.22 310 3.28
 278  0.111  0.361  0.707- 314 3.23 311 3.25
 279  0.119  0.870  0.707- 315 3.23 310 3.26
 280  0.614  0.364  0.709- 316 3.20 313 3.23
 281  0.608  0.858  0.701- 317 3.25 312 3.27
 282  0.396  0.145  0.708- 312 3.20 314 3.23
 283  0.394  0.644  0.709- 313 3.20 315 3.20
 284  0.897  0.149  0.708- 310 3.19 316 3.22
 285  0.890  0.642  0.710- 317 3.21 311 3.22
 286  0.143  0.105  0.801- 318 3.14 322 3.43
 287  0.146  0.605  0.801- 319 3.12 323 3.38
 288  0.641  0.107  0.802- 320 3.17 324 3.51
 289  0.645  0.604  0.799- 321 3.14 325 3.40
 290  0.346  0.405  0.805- 322 3.12 321 3.37
 291  0.344  0.905  0.805- 323 3.12 320 3.33
 292  0.845  0.409  0.805- 324 3.08 319 3.37
 293  0.854  0.895  0.806- 325 3.09 318 3.33
 294  0.104  0.358  0.806- 322 3.10 319 3.32
 295  0.101  0.853  0.802- 323 3.11 318 3.34
 296  0.602  0.355  0.805- 324 3.09 321 3.31
 297  0.600  0.853  0.806- 325 3.14 320 3.29
 298  0.394  0.146  0.806- 320 3.18 322 3.40
 299  0.400  0.651  0.804- 321 3.16 323 3.42
 300  0.893  0.146  0.807- 318 3.15 324 3.42
 301  0.897  0.650  0.799- 319 3.17 325 3.37
 302  0.994  0.001  0.606- 238 3.16 253 3.19 232 3.21 260 3.21 246 3.26 255 3.28
 303  0.995  0.501  0.603- 233 3.20 239 3.21 252 3.22 247 3.25 254 3.26 261 3.27
 304  0.495  0.004  0.607- 240 3.16 258 3.19 248 3.21 230 3.23 251 3.23 257 3.26
 305  0.500  0.498  0.602- 231 3.09 256 3.18 249 3.22 250 3.25 241 3.32 259 3.33
 306  0.252  0.255  0.606- 250 3.16 234 3.18 242 3.20 258 3.21 254 3.26 246 3.31
 307  0.247  0.753  0.606- 243 3.17 251 3.21 247 3.22 235 3.22 255 3.23 259 3.26
 308  0.739  0.252  0.606- 236 3.10 256 3.15 248 3.20 244 3.22 252 3.29 260 3.32
 309  0.744  0.753  0.604- 237 3.17 245 3.21 257 3.21 249 3.21 253 3.23 261 3.29
 310  0.004  0.009  0.706- 238 3.12 262 3.17 284 3.19 270 3.19 279 3.26 277 3.28
 311  0.003  0.505  0.705- 239 3.16 263 3.18 271 3.21 285 3.22 276 3.24 278 3.25
 312  0.508  0.008  0.708- 240 3.13 264 3.14 272 3.18 282 3.20 281 3.27 275 3.30
 313  0.502  0.504  0.706- 241 3.16 265 3.17 283 3.20 273 3.20 280 3.23 274 3.24
 314  0.255  0.255  0.707- 242 3.14 266 3.14 274 3.20 282 3.23 270 3.23 278 3.23
 315  0.258  0.758  0.706- 267 3.13 243 3.17 275 3.18 283 3.20 279 3.23 271 3.29
 316  0.754  0.256  0.708- 244 3.13 268 3.17 280 3.20 276 3.21 284 3.22 272 3.27
 317  0.754  0.754  0.705- 245 3.13 269 3.17 285 3.21 277 3.22 273 3.23 281 3.25
 318  0.999  0.008  0.805- 262 3.03 286 3.14 300 3.15 293 3.33 295 3.34
 319  0.001  0.510  0.803- 263 3.03 287 3.12 301 3.17 294 3.32 292 3.37
 320  0.499  0.004  0.806- 264 3.03 288 3.17 298 3.18 297 3.29 291 3.33
 321  0.501  0.508  0.804- 265 3.02 289 3.14 299 3.16 296 3.31 290 3.37
 322  0.247  0.263  0.806- 266 3.02 294 3.10 290 3.12 298 3.40 286 3.43
 323  0.246  0.762  0.805- 267 3.02 295 3.11 291 3.12 287 3.38 299 3.42
 324  0.749  0.268  0.806- 268 3.02 292 3.08 296 3.09 300 3.42 288 3.51
 325  0.748  0.761  0.804- 269 3.04 293 3.09 297 3.14 301 3.37 289 3.40
 

IMPORTANT INFORMATION: All symmetrisations will be switched off!
NOSYMM: (Re-)initialisation of all symmetry stuff for point group C_1.


----------------------------------------------------------------------------------------

                                     Primitive cell                                     

  volume of cell :   20385.2105

  direct lattice vectors                    reciprocal lattice vectors
    18.060800552  0.000000000  0.000000000     0.055368531  0.000015077 -0.000000000
    -0.004918649 18.062799454  0.000000000     0.000000000  0.055362404  0.000000000
     0.000000000  0.000000000 62.487499237     0.000000000 -0.000000000  0.016003201

  length of vectors
    18.060800552 18.062800123 62.487499237     0.055368533  0.055362404  0.016003201

  position of ions in fractional coordinates (direct lattice)
     0.489105809  0.342999015  0.563528636
     0.405555243  0.779576767  0.567379443
     0.930092495  0.221314767  0.578279512
     0.915710748  0.776401840  0.570275892
     0.273578056  0.095384975  0.567388310
     0.315383166  0.602716505  0.562941310
     0.783274117  0.097491007  0.563853365
     0.116809606  0.230100912  0.556457444
     0.101910168  0.707554593  0.562092337
     0.546569916  0.147477978  0.563017856
     0.591069158  0.700917212  0.564093325
     0.357542720  0.051066710  0.561029693
     0.228905120  0.602283571  0.551090408
     0.863223505  0.046612683  0.557025019
     0.054603238  0.168394991  0.568035333
     0.013521345  0.677974722  0.570458079
     0.586044104  0.235639396  0.564781088
     0.499384190  0.674676948  0.569650057
     0.305735666  0.486244579  0.576991562
     0.166396587  0.006143400  0.574350678
     0.673038915  0.016493037  0.574177648
     0.397635245  0.311951707  0.561205643
     0.444236322  0.866566954  0.561381338
     0.917314952  0.314131513  0.572332671
     0.945822324  0.864254179  0.561477066
     0.197975451  0.418962612  0.574641378
     0.186169494  0.912557117  0.568836308
     0.683213624  0.922085578  0.568025818
     0.427221234  0.189608602  0.560373241
     0.562238419  0.821595835  0.557535882
     0.031634469  0.327497166  0.556097122
     0.063469165  0.825098733  0.554233994
     0.151564567  0.482915235  0.558965702
     0.306899541  0.934896200  0.560089743
     0.802656751  0.933996121  0.556924528
     0.407467235  0.261592650  0.657134079
     0.480548128  0.816686392  0.674552865
     0.945294238  0.325122899  0.669978503
     0.996921360  0.756573238  0.683802175
     0.308747149  0.023873691  0.677051433
     0.316340193  0.504805237  0.676023355
     0.786658406  0.047486937  0.678686556
     0.844150640  0.503160204  0.659134711
     0.077004302  0.174027268  0.663085932
     0.064438445  0.710575449  0.642104258
     0.600875091  0.197313137  0.659690539
     0.569908867  0.668449542  0.644601454
     0.164290321  0.429183210  0.644821525
     0.167210683  0.925251756  0.646723414
     0.647955707  0.450514890  0.657202737
     0.674333388  0.925111765  0.645266719
     0.045570395  0.236451073  0.682176476
     0.082611888  0.679712701  0.668076056
     0.511618108  0.160076603  0.658662613
     0.569376892  0.708348817  0.670089175
     0.233750672  0.402242479  0.662458463
     0.202308056  0.931995640  0.672669491
     0.735626783  0.409026309  0.659033076
     0.688560481  0.947283417  0.672111104
     0.441999589  0.351963129  0.657204251
     0.423268536  0.834216786  0.652590282
     0.926356117  0.323851337  0.642581174
     0.926276951  0.838037551  0.664258027
     0.329384472  0.076359666  0.654393512
     0.297545433  0.593509206  0.665637701
     0.831766941  0.079321975  0.655886321
     0.815921569  0.595659218  0.657157255
     0.006638843  0.226232394  0.635731195
     0.965248836  0.812584683  0.639719862
     0.563379220  0.317876258  0.658843248
     0.475201516  0.741924623  0.631849534
     0.242270638  0.017896648  0.633251187
     0.199029586  0.552854699  0.645134575
     0.764007480  0.005536623  0.632822067
     0.692612494  0.568930757  0.655628082
     0.457218042  0.256928336  0.781119027
     0.452651827  0.770816145  0.779088937
     0.955049806  0.249325126  0.782450799
     0.949102237  0.788693544  0.775375721
     0.293967467  0.055556556  0.775987139
     0.300421165  0.550522880  0.774868702
     0.780637255  0.089596489  0.770355537
     0.796271467  0.560416746  0.772157430
     0.085023815  0.183613771  0.742485205
     0.082642476  0.675201122  0.746477960
     0.584752911  0.175495951  0.742952860
     0.576800557  0.675144254  0.742826553
     0.169513330  0.425604733  0.748981298
     0.172507697  0.924692267  0.748511969
     0.670413673  0.424570583  0.748617384
     0.689573615  0.913652575  0.760889126
     0.058616797  0.168616692  0.768937892
     0.050797512  0.691254848  0.772444993
     0.560678039  0.171607967  0.769949462
     0.550672623  0.677028106  0.769701406
     0.200155329  0.451434904  0.774337410
     0.193423655  0.955893953  0.774216554
     0.695732548  0.461661844  0.773403450
     0.686468907  0.991481796  0.777649473
     0.431376977  0.324069292  0.762546890
     0.429365202  0.833796551  0.759020256
     0.933586700  0.326117512  0.766616773
     0.925078981  0.832210382  0.751526002
     0.330717878  0.081719358  0.751355694
     0.328453248  0.582489392  0.749830875
     0.834474318  0.077634493  0.747503752
     0.828592449  0.581912966  0.746568094
     0.011054724  0.288425763  0.738738253
     0.006564015  0.762508669  0.731104681
     0.506832409  0.274751711  0.735679915
     0.503520931  0.775299856  0.733527933
     0.257568550  0.000765945  0.732001693
     0.248112460  0.506311983  0.731286313
     0.781243213  0.964019062  0.739129134
     0.752527222  0.497481528  0.729635519
     0.703273799  0.428479578  0.526002435
     0.738000164  0.469432877  0.502297531
     0.653040842  0.541644010  0.536291486
     0.708887961  0.621640714  0.539458211
     0.837721071  0.485578403  0.555027975
     0.786976797  0.565894842  0.561656599
     0.881006951  0.526216369  0.523679251
     0.823605878  0.561115874  0.502972102
     0.866702191  0.422993333  0.511635198
     0.830277642  0.381751047  0.535063339
     0.842955884  0.286930833  0.509292718
     0.747957158  0.301567368  0.512722576
     0.662976198  0.553363456  0.495870642
     0.717827478  0.635050043  0.499316365
     0.625441674  0.631918221  0.508643001
     0.739548132  0.464822204  0.582806576
     0.725536507  0.406506826  0.560495431
     0.668855943  0.486676308  0.564445190
     0.807691279  0.680436008  0.524700117
     0.901555897  0.657645769  0.519699534
     0.863103092  0.642221648  0.545265852
     0.839019286  0.362415882  0.474944329
     0.789539365  0.278724890  0.474776260
     0.645808945  0.305723108  0.492208985
     0.779917099  0.453900297  0.454646943
     0.533120481  0.373415368  0.481207412
     0.666554630  0.521038018  0.443089026
     0.542601496  0.481487274  0.456535961
     0.015300765  0.273158709  0.562305223
     0.023010038  0.784885042  0.560069097
     0.472106215  0.229850597  0.561654001
     0.517500268  0.783167265  0.561441449
     0.260038869  0.507992844  0.567354106
     0.271555245  0.981835359  0.564145471
     0.772397185  0.983962549  0.561424432
     0.002454846  0.248326355  0.651943739
     0.003954064  0.758485092  0.666459788
     0.521309876  0.274531347  0.658486586
     0.495063402  0.750249512  0.648190411
     0.229897986  0.513140828  0.654891128
     0.247845917  0.001693900  0.650011926
     0.731875836  0.523195479  0.656927294
     0.753341673  0.002360169  0.649991580
     0.506979815  0.250377388  0.751675304
     0.502126851  0.754669124  0.749950354
     0.008614798  0.256271257  0.753539648
     0.003448474  0.753264313  0.748323709
     0.251901521  0.002895143  0.749362756
     0.248876335  0.504236968  0.748735972
     0.761383217  0.994864342  0.753063441
     0.749714345  0.502928347  0.747019788
     0.720995640  0.375240579  0.474285771
     0.650805734  0.353055605  0.481463677
     0.725579522  0.436022071  0.460426153
     0.587154422  0.391098640  0.475261876
     0.661899342  0.473985737  0.453991420
     0.592407758  0.451932830  0.461466423
     0.752658025  0.453043141  0.518617462
     0.698226324  0.573643045  0.529077832
     0.782761440  0.511187466  0.554227374
     0.833849225  0.562481616  0.520311978
     0.816519573  0.397916553  0.518527856
     0.798244413  0.326843090  0.506043048
     0.676275556  0.599129884  0.506813432
     0.725210230  0.464677500  0.565718243
     0.851246965  0.639941374  0.528105087
     0.789791552  0.334920098  0.481655913
     0.063160028  0.218505239  0.560802840
     0.046167259  0.716840309  0.563151477
     0.539795785  0.203648384  0.562734893
     0.535995741  0.713477884  0.564067706
     0.452889242  0.299884706  0.561722885
     0.450169984  0.810361134  0.562744979
     0.948063380  0.267416001  0.570136228
     0.954956225  0.808561492  0.562994895
     0.200838096  0.466400944  0.565769407
     0.202072562  0.966882795  0.568509654
     0.702919998  0.974994346  0.567070196
     0.301614442  0.047994650  0.563730120
     0.269789717  0.573257926  0.558469866
     0.807579639  0.047438523  0.560410940
     0.044445485  0.218195564  0.666712324
     0.053107293  0.713434834  0.658064978
     0.544977408  0.205871458  0.659082460
     0.547606042  0.705827077  0.655029650
     0.207298067  0.444055779  0.654531688
     0.203872518  0.949210311  0.657074893
     0.704344172  0.455953262  0.657588842
     0.702943438  0.954996460  0.656443090
     0.452137073  0.296374976  0.657614777
     0.463723568  0.802941885  0.659450251
     0.955440452  0.302546599  0.655215200
     0.962270664  0.805476625  0.655896889
     0.297263505  0.037212384  0.661525807
     0.286597951  0.538020421  0.665877626
     0.792700179  0.045737974  0.662470422
     0.802310043  0.540759041  0.657583708
     0.052437478  0.198488578  0.755113312
     0.047806316  0.703062988  0.756470624
     0.552693125  0.195023316  0.755153481
     0.544798362  0.697984940  0.754580838
     0.203452494  0.457615431  0.758114675
     0.202923303  0.958580399  0.758126655
     0.702736798  0.460046196  0.757199868
     0.707446717  0.965832752  0.764332250
     0.462624584  0.278910880  0.766082988
     0.458533259  0.788420273  0.763599664
     0.962842578  0.278428304  0.768509647
     0.956179825  0.793587023  0.759211198
     0.294705951  0.049463033  0.759725439
     0.295292842  0.548487875  0.758619995
     0.793903692  0.058213791  0.757332854
     0.793815203  0.551605248  0.756022952
     0.767128945  0.525036808  0.530507956
     0.492925757  0.006152636  0.555568348
     0.495383036  0.497598888  0.552995432
     0.999519033  0.002551031  0.554327518
     0.009402188  0.487888021  0.552316109
     0.258688296  0.253267904  0.555194358
     0.237587049  0.773075337  0.554436255
     0.739874588  0.235678245  0.556579519
     0.723790957  0.780282525  0.554267139
     0.004783320  0.016183747  0.655935369
     0.003390598  0.512521291  0.654429518
     0.501242934  0.011480926  0.657657864
     0.506306902  0.495155285  0.655587141
     0.252711597  0.244759028  0.657108844
     0.260095657  0.734556478  0.655873203
     0.741424673  0.252885815  0.657629495
     0.762870191  0.735860680  0.654785345
     0.137650560  0.111318900  0.604587994
     0.134700422  0.614293468  0.605922088
     0.641656474  0.104365355  0.607518920
     0.637536574  0.610602453  0.606867208
     0.353844790  0.396112061  0.610041501
     0.356740824  0.891773627  0.610977856
     0.856942712  0.390401417  0.609716935
     0.856554644  0.891461466  0.607833149
     0.104915262  0.359504656  0.607968654
     0.102543186  0.856931077  0.611250274
     0.593696455  0.348681459  0.604608228
     0.605767238  0.862085297  0.610536625
     0.390106351  0.145275304  0.611750563
     0.390939782  0.645939783  0.599835525
     0.883853183  0.139816314  0.610020546
     0.890068862  0.646867191  0.596135050
     0.991354293  0.996325784  0.756195879
     0.993883246  0.479953962  0.755267220
     0.495575953  0.988924482  0.757646668
     0.490834167  0.484687176  0.756390956
     0.256254040  0.255559068  0.757486839
     0.254764855  0.753370530  0.756298419
     0.758775540  0.256870525  0.758221421
     0.743959730  0.769031347  0.755042273
     0.147594103  0.112105052  0.707368969
     0.135265954  0.623010490  0.706770718
     0.655778212  0.103880233  0.708461717
     0.639579995  0.616463996  0.705925433
     0.356211477  0.400094983  0.703984017
     0.361084386  0.900132443  0.703950586
     0.861725345  0.395610572  0.700542533
     0.865467549  0.892888933  0.702576200
     0.111049089  0.360904760  0.706558496
     0.119181968  0.870443423  0.706959738
     0.613911388  0.364471190  0.708572103
     0.607661511  0.858357887  0.701068739
     0.396346403  0.145343672  0.708422483
     0.393559055  0.643803603  0.708767834
     0.896843802  0.149268638  0.707600049
     0.890193346  0.641700808  0.709871605
     0.143121129  0.104738958  0.801073985
     0.145656971  0.604591138  0.800625309
     0.640521964  0.107211539  0.802201151
     0.644878900  0.603557880  0.798876368
     0.345501022  0.404937571  0.804845412
     0.343775941  0.904756200  0.804730233
     0.844658790  0.409158973  0.804601084
     0.853848742  0.894714888  0.805579734
     0.104429712  0.358349921  0.805521814
     0.100882531  0.853253965  0.802024230
     0.601809633  0.355432545  0.804878507
     0.600413485  0.852669617  0.806069283
     0.394420079  0.145545054  0.805632146
     0.399996119  0.651157920  0.803530172
     0.893037946  0.145593913  0.807035745
     0.897227997  0.650483369  0.799081979
     0.994218955  0.001486126  0.605633325
     0.994855850  0.501498736  0.603160317
     0.494991500  0.004392719  0.607220009
     0.500039468  0.497686557  0.602443420
     0.251761454  0.254782422  0.605983867
     0.246986049  0.752936467  0.605632299
     0.739074792  0.252056064  0.606039216
     0.744162760  0.752706174  0.604004934
     0.004105840  0.009337617  0.705756501
     0.002953838  0.504775496  0.704918116
     0.508058669  0.008038061  0.707768784
     0.502260892  0.504197043  0.706103488
     0.255229778  0.254864789  0.707234414
     0.257943382  0.757701153  0.706234528
     0.754002023  0.256001689  0.707568194
     0.753810681  0.753813980  0.704553518
     0.999383698  0.007595746  0.804526245
     0.001337876  0.510138559  0.802963938
     0.499011057  0.003978668  0.805939942
     0.500656941  0.508286561  0.804194234
     0.247162588  0.262866794  0.805654973
     0.246403381  0.761885308  0.804527671
     0.748617108  0.268096983  0.806340452
     0.747527444  0.760516540  0.803579878

  ion indices of the primitive-cell ions
   primitive index   ion index
                 1           1
                 2           2
                 3           3
                 4           4
                 5           5
                 6           6
                 7           7
                 8           8
                 9           9
                10          10
                11          11
                12          12
                13          13
                14          14
                15          15
                16          16
                17          17
                18          18
                19          19
                20          20
                21          21
                22          22
                23          23
                24          24
                25          25
                26          26
                27          27
                28          28
                29          29
                30          30
                31          31
                32          32
                33          33
                34          34
                35          35
                36          36
                37          37
                38          38
                39          39
                40          40
                41          41
                42          42
                43          43
                44          44
                45          45
                46          46
                47          47
                48          48
                49          49
                50          50
                51          51
                52          52
                53          53
                54          54
                55          55
                56          56
                57          57
                58          58
                59          59
                60          60
                61          61
                62          62
                63          63
                64          64
                65          65
                66          66
                67          67
                68          68
                69          69
                70          70
                71          71
                72          72
                73          73
                74          74
                75          75
                76          76
                77          77
                78          78
                79          79
                80          80
                81          81
                82          82
                83          83
                84          84
                85          85
                86          86
                87          87
                88          88
                89          89
                90          90
                91          91
                92          92
                93          93
                94          94
                95          95
                96          96
                97          97
                98          98
                99          99
               100         100
               101         101
               102         102
               103         103
               104         104
               105         105
               106         106
               107         107
               108         108
               109         109
               110         110
               111         111
               112         112
               113         113
               114         114
               115         115
               116         116
               117         117
               118         118
               119         119
               120         120
               121         121
               122         122
               123         123
               124         124
               125         125
               126         126
               127         127
               128         128
               129         129
               130         130
               131         131
               132         132
               133         133
               134         134
               135         135
               136         136
               137         137
               138         138
               139         139
               140         140
               141         141
               142         142
               143         143
               144         144
               145         145
               146         146
               147         147
               148         148
               149         149
               150         150
               151         151
               152         152
               153         153
               154         154
               155         155
               156         156
               157         157
               158         158
               159         159
               160         160
               161         161
               162         162
               163         163
               164         164
               165         165
               166         166
               167         167
               168         168
               169         169
               170         170
               171         171
               172         172
               173         173
               174         174
               175         175
               176         176
               177         177
               178         178
               179         179
               180         180
               181         181
               182         182
               183         183
               184         184
               185         185
               186         186
               187         187
               188         188
               189         189
               190         190
               191         191
               192         192
               193         193
               194         194
               195         195
               196         196
               197         197
               198         198
               199         199
               200         200
               201         201
               202         202
               203         203
               204         204
               205         205
               206         206
               207         207
               208         208
               209         209
               210         210
               211         211
               212         212
               213         213
               214         214
               215         215
               216         216
               217         217
               218         218
               219         219
               220         220
               221         221
               222         222
               223         223
               224         224
               225         225
               226         226
               227         227
               228         228
               229         229
               230         230
               231         231
               232         232
               233         233
               234         234
               235         235
               236         236
               237         237
               238         238
               239         239
               240         240
               241         241
               242         242
               243         243
               244         244
               245         245
               246         246
               247         247
               248         248
               249         249
               250         250
               251         251
               252         252
               253         253
               254         254
               255         255
               256         256
               257         257
               258         258
               259         259
               260         260
               261         261
               262         262
               263         263
               264         264
               265         265
               266         266
               267         267
               268         268
               269         269
               270         270
               271         271
               272         272
               273         273
               274         274
               275         275
               276         276
               277         277
               278         278
               279         279
               280         280
               281         281
               282         282
               283         283
               284         284
               285         285
               286         286
               287         287
               288         288
               289         289
               290         290
               291         291
               292         292
               293         293
               294         294
               295         295
               296         296
               297         297
               298         298
               299         299
               300         300
               301         301
               302         302
               303         303
               304         304
               305         305
               306         306
               307         307
               308         308
               309         309
               310         310
               311         311
               312         312
               313         313
               314         314
               315         315
               316         316
               317         317
               318         318
               319         319
               320         320
               321         321
               322         322
               323         323
               324         324
               325         325

----------------------------------------------------------------------------------------

 
 
 KPOINTS: K-Spacing Value to Generate K-Mesh: 0.02

Automatic generation of k-mesh.
 Grid dimensions read from file:
 generate k-points for:    3    3    1

 Generating k-lattice:

  Cartesian coordinates                     Fractional coordinates (reciprocal lattice)
     0.018456177  0.000005026 -0.000000000     0.333333333 -0.000000000  0.000000000
     0.000000000  0.018454135  0.000000000     0.000000000  0.333333333  0.000000000
     0.000000000 -0.000000000  0.016003201     0.000000000  0.000000000  1.000000000

  Length of vectors
     0.018456178  0.018454135  0.016003201

  Shift w.r.t. Gamma in fractional coordinates (k-lattice)
     0.000000000  0.000000000  0.000000000

 
 Subroutine IBZKPT returns following result:
 ===========================================
 
 Found      5 irreducible k-points:
 
 Following reciprocal coordinates:
            Coordinates               Weight
  0.000000  0.000000  0.000000      1.000000
  0.333333  0.000000  0.000000      2.000000
  0.000000  0.333333  0.000000      2.000000
  0.333333  0.333333  0.000000      2.000000
 -0.333333  0.333333  0.000000      2.000000
 
 Following cartesian coordinates:
            Coordinates               Weight
  0.000000  0.000000  0.000000      1.000000
  0.018456  0.000005  0.000000      2.000000
  0.000000  0.018454  0.000000      2.000000
  0.018456  0.018459  0.000000      2.000000
 -0.018456  0.018449  0.000000      2.000000
 


--------------------------------------------------------------------------------------------------------




 Dimension of arrays:
   k-points           NKPTS =      5   k-points in BZ     NKDIM =      5   number of bands    NBANDS=    850
   number of dos      NEDOS =    301   number of ions     NIONS =    325
   non local maximal  LDIM  =      6   non local SUM 2l+1 LMDIM =     18
   total plane-waves  NPLWV = ******
   max r-space proj   IRMAX =   1980   max aug-charges    IRDMAX=  10130
   dimension x,y,z NGX =   100 NGY =  100 NGZ =  350
   dimension x,y,z NGXF=   200 NGYF=  200 NGZF=  700
   support grid    NGXF=   200 NGYF=  200 NGZF=  700
   ions per type =             143  39  47  72  24
   NGX,Y,Z   is equivalent  to a cutoff of   9.20,  9.20,  9.31 a.u.
   NGXF,Y,Z  is equivalent  to a cutoff of  18.41, 18.41, 18.62 a.u.

 SYSTEM =  PSC                                     
 POSCAR =  H    C    N    I    Pb                  

 Startparameter for this run:
   NWRITE =      2    write-flag & timer
   PREC   = normal    normal or accurate (medium, high low for compatibility)
   ISTART =      0    job   : 0-new  1-cont  2-samecut
   ICHARG =      2    charge: 1-file 2-atom 10-const
   ISPIN  =      1    spin polarized calculation?
   LNONCOLLINEAR =      F non collinear calculations
   LSORBIT =      F    spin-orbit coupling
   INIWAV =      1    electr: 0-lowe 1-rand  2-diag
   LASPH  =      F    aspherical Exc in radial PAW
 Electronic Relaxation 1
   ENCUT  =  500.0 eV  36.75 Ry    6.06 a.u.  32.93 32.93113.93*2*pi/ulx,y,z
   ENINI  =  500.0     initial cutoff
   ENAUG  =  644.9 eV  augmentation charge cutoff
   NELM   =    600;   NELMIN=  2; NELMDL=-12     # of ELM steps 
   EDIFF  = 0.1E-03   stopping-criterion for ELM
   LREAL  =      T    real-space projection
   NLSPLINE    = F    spline interpolate recip. space projectors
   LCOMPAT=      F    compatible to vasp.4.4
   GGA_COMPAT  = F    GGA compatible to vasp.4.4-vasp.4.6
   LMAXPAW     = -100 max onsite density
   LMAXMIX     =    2 max onsite mixed and CHGCAR
   VOSKOWN=      0    Vosko Wilk Nusair interpolation
   ROPT   =   -0.00050  -0.00050  -0.00050  -0.00050
   ROPT   =   -0.00050
 Ionic relaxation
   EDIFFG = -.7E-01   stopping-criterion for IOM
   NSW    =   2000    number of steps for IOM
   NBLOCK =      1;   KBLOCK =   2000    inner block; outer block 
   IBRION =      2    ionic relax: 0-MD 1-quasi-New 2-CG
   NFREE  =      1    steps in history (QN), initial steepest desc. (CG)
   ISIF   =      2    stress and relaxation
   IWAVPR =     11    prediction:  0-non 1-charg 2-wave 3-comb
   ISYM   =      0    0-nonsym 1-usesym 2-fastsym
   LCORR  =      T    Harris-Foulkes like correction to forces

   POTIM  = 0.3000    time-step for ionic-motion
   TEIN   =    0.0    initial temperature
   TEBEG  =    0.0;   TEEND  =   0.0 temperature during run
   SMASS  =  -3.00    Nose mass-parameter (am)
   estimated Nose-frequenzy (Omega)   =  0.10E-29 period in steps = 0.21E+47 mass=  -0.745E-26a.u.
   SCALEE = 1.0000    scale energy and forces
   NPACO  =    256;   APACO  = 10.0  distance and # of slots for P.C.
   PSTRESS=    0.0 pullay stress

  Mass of Ions in am
   POMASS =   1.00 12.01 14.00126.90207.20
  Ionic Valenz
   ZVAL   =   1.00  4.00  5.00  7.00 14.00
  Atomic Wigner-Seitz radii
   RWIGS  =  -1.00 -1.00 -1.00 -1.00 -1.00
  virtual crystal weights 
   VCA    =   1.00  1.00  1.00  1.00  1.00
   NELECT =    1374.0000    total number of electrons
   NUPDOWN=      -1.0000    fix difference up-down

 DOS related values:
   EMIN   =  10.00;   EMAX   =-10.00  energy-range for DOS
   EFERMI =   0.00
   ISMEAR =     0;   SIGMA  =   0.05  broadening in eV -4-tet -1-fermi 0-gaus

 Electronic relaxation 2 (details)
   IALGO  =     48    algorithm
   LDIAG  =      T    sub-space diagonalisation (order eigenvalues)
   LSUBROT=      F    optimize rotation matrix (better conditioning)
   TURBO    =      0    0=normal 1=particle mesh
   IRESTART =      0    0=no restart 2=restart with 2 vectors
   NREBOOT  =      0    no. of reboots
   NMIN     =      0    reboot dimension
   EREF     =   0.00    reference energy to select bands
   IMIX   =      4    mixing-type and parameters
     AMIX     =   0.40;   BMIX     =  0.01
     AMIX_MAG =   1.60;   BMIX_MAG =  0.01
     AMIN     =   0.01
     WC   =   100.;   INIMIX=   1;  MIXPRE=   1;  MAXMIX= -45

 Intra band minimization:
   WEIMIN = 0.0010     energy-eigenvalue tresh-hold
   EBREAK =  0.29E-07  absolut break condition
   DEPER  =   0.30     relativ break condition  

   TIME   =   0.40     timestep for ELM

  volume/ion in A,a.u.               =      62.72       423.28
  Fermi-wavevector in a.u.,A,eV,Ry     =   0.666242  1.259015  6.039332  0.443878
  Thomas-Fermi vector in A             =   1.740483
 
 Write flags
   LWAVE        =      F    write WAVECAR
   LDOWNSAMPLE  =      F    k-point downsampling of WAVECAR
   LCHARG       =      T    write CHGCAR
   LVTOT        =      T    write LOCPOT, total local potential
   LVHAR        =      F    write LOCPOT, Hartree potential only
   LELF         =      F    write electronic localiz. function (ELF)
   LORBIT       =      0    0 simple, 1 ext, 2 COOP (PROOUT), +10 PAW based schemes


 Dipole corrections
   LMONO  =      F    monopole corrections only (constant potential shift)
   LDIPOL =      T    correct potential (dipole corrections)
   IDIPOL =      3    1-x, 2-y, 3-z, 4-all directions 
   EPSILON=  1.0000000 bulk dielectric constant

 Exchange correlation treatment:
   GGA     =    --    GGA type
   LEXCH   =     8    internal setting for exchange type
   LIBXC   =     F    Libxc                    
   VOSKOWN =     0    Vosko Wilk Nusair interpolation
   LHFCALC =     F    Hartree Fock is set to
   LHFONE  =     F    Hartree Fock one center treatment
   AEXX    =    0.0000 exact exchange contribution

 Linear response parameters
   LEPSILON=     F    determine dielectric tensor
   LRPA    =     F    only Hartree local field effects (RPA)
   LNABLA  =     F    use nabla operator in PAW spheres
   LVEL    =     F    velocity operator in full k-point grid
   CSHIFT  =0.1000    complex shift for real part using Kramers Kronig
   OMEGAMAX=  -1.0    maximum frequency
   DEG_THRESHOLD= 0.2000000E-02 threshold for treating states as degnerate
   RTIME   =   -0.100 relaxation time in fs
  (WPLASMAI=    0.000 imaginary part of plasma frequency in eV, 0.658/RTIME)
   DFIELD  = 0.0000000 0.0000000 0.0000000 field for delta impulse in time
 
  Optional k-point grid parameters
   LKPOINTS_OPT  =     F    use optional k-point grid
   KPOINTS_OPT_MODE=     1    mode for optional k-point grid
 
 Orbital magnetization related:
   ORBITALMAG=     F  switch on orbital magnetization
   LCHIMAG   =     F  perturbation theory with respect to B field
   DQ        =  0.001000  dq finite difference perturbation B field
   LLRAUG    =     F  two centre corrections for induced B field



--------------------------------------------------------------------------------------------------------


 conjugate gradient relaxation of ions
 charge density and potential will be updated during run
 non-spin polarized calculation
 RMM-DIIS sequential band-by-band
[...]
     12.80044     11.22798     33.70923         0.025910     -0.014722     -0.001367
     15.12821      8.77085     34.68239         0.017958      0.008398      0.001103
     14.21116     10.22300     35.09647         0.024692      0.034054     -0.015380
     15.90963      9.50461     32.72389         0.014411     -0.009897      0.029112
     14.87205     10.13629     31.43001        -0.017326      0.051050      0.026948
     15.65091      7.63984     31.97086         0.001906     -0.026062     -0.004227
     14.99333      6.89590     33.43400        -0.004192      0.012110     -0.009941
     15.22242      5.18319     31.82421        -0.024521      0.013256     -0.012475
     13.50707      5.44687     32.03943         0.015412     -0.003020      0.027943
     11.97153      9.99597     30.98640         0.012096      0.003123      0.014360
     12.96176     11.47082     31.20102         0.002599     -0.015350      0.007588
     11.29302     11.41446     31.78380         0.011855      0.012388     -0.003621
     13.35448      8.39622     36.41725         0.002940      0.011087     -0.043250
     13.10132      7.34365     35.02440        -0.023759      0.002614      0.008187
     12.07720      8.79079     35.27073         0.022518     -0.019701      0.000143
     14.58379     12.29053     32.78667        -0.036834      0.005554     -0.042397
     16.28051     11.87955     32.47461         0.045485      0.034713     -0.006840
     15.58563     11.59935     34.07396         0.007016     -0.062346      0.000546
     15.15187      6.54676     29.67808         0.030196      0.035929     -0.007815
     14.25798      5.03427     29.66746        -0.016291     -0.016645     -0.007922
     11.66238      5.52179     30.75722        -0.004810     -0.020703      0.016270
     14.08295      8.19845     28.40992        -0.008603      0.001391     -0.008142
      9.62721      6.74497     30.06929         0.004400      0.000825     -0.005615
     12.03603      9.41105     27.68801         0.000390      0.016571      0.001696
      9.79761      8.69721     28.52787         0.018165      0.006263      0.010108
      0.27612      4.93352     35.13649        -0.035869      0.020790     -0.001292
      0.41070     14.17798     34.99737         0.048550     -0.036359     -0.001763
      8.52614      4.15132     35.09628        -0.029192      0.026150     -0.007628
      9.34252     14.14623     35.08328         0.003327     -0.000303      0.011447
      4.69326      9.17459     35.45266         0.025498      0.028250     -0.012783
      4.89890     17.73430     35.25145        -0.009721     -0.012161     -0.031865
     13.94548     17.77348     35.08196         0.008726     -0.008236     -0.005379
      0.04306      4.48563     40.73854         0.030615     -0.025155      0.020688
      0.06826     13.70018     41.64539        -0.011439      0.029442      0.003540
      9.41435      4.95836     41.14716        -0.037159      0.044577     -0.005079
      8.93766     13.55181     40.50351         0.004674      0.016552     -0.003995
      4.14940      9.26908     40.92275        -0.046242     -0.036360     -0.004351
      4.47674      0.03115     40.61783        -0.050217     -0.035685     -0.012342
     13.21523      9.45009     41.04986         0.032334      0.025463      0.005876
     13.60614      0.04227     40.61630         0.041487      0.010007      0.008360
      9.15575      4.52244     46.97004        -0.024623      0.023223      0.052921
      9.06507     13.63128     46.86259        -0.010252     -0.000875      0.013987
      0.15382      4.62892     47.08683        -0.018842     -0.014451     -0.001837
      0.05850     13.60612     46.76115        -0.020124      0.025788      0.001135
      4.54986      0.05314     46.82621        -0.023615     -0.000712     -0.006358
      4.49270      9.10802     46.78679        -0.013500     -0.021280     -0.021431
     13.74699     17.97010     47.05701        -0.004618     -0.027423      0.029835
     13.53802      9.08425     46.67962        -0.001669     -0.010213     -0.003185
     13.02101      6.77685     29.63788        -0.003341      0.017155     -0.007010
     11.75162      6.37710     30.08563        -0.001714      0.004533     -0.000661
     13.10269      7.87659     28.77004        -0.052734     -0.012911      0.011461
     10.60173      7.06508     29.69752        -0.004442      0.006299     -0.002190
     11.95135      8.56242     28.36818         0.000429     -0.012490      0.006347
     10.69724      8.16252     28.83613        -0.021901      0.018572     -0.022180
     13.59035      8.18332     32.40714         0.000675     -0.003203      0.023173
     12.60785     10.36231     33.06034        -0.028236     -0.004183     -0.000977
     14.13380      9.23251     34.63284         0.006111      0.005677      0.039798
     15.05671     10.15950     32.51327        -0.009089     -0.035360      0.018881
     14.74611      7.18696     32.40193        -0.015161     -0.008326     -0.014004
     14.41570      5.90407     31.62091        -0.006959      0.011706     -0.010220
     12.21071     10.82107     31.66938         0.008128      0.021109      0.004028
     13.09697      8.39235     35.34965        -0.012285      0.003110     -0.019104
     15.37046     11.55917     32.99793         0.007212      0.000185      0.002964
     14.26345      6.04956     30.09698         0.048702     -0.014523     -0.011768
      1.13906      3.94692     35.04360         0.042033     -0.021677      0.002673
      0.83063     12.94792     35.18995        -0.030770      0.034447     -0.000826
      9.74774      3.67832     35.16390         0.037545     -0.003875      0.005347
      9.67648     12.88731     35.24723         0.022438     -0.000182     -0.004008
      8.17789      5.41709     35.10071         0.011710     -0.024655      0.001985
      8.12655     14.63737     35.16446        -0.008644     -0.008325      0.000221
     17.12145      4.83105     35.62638         0.045917     -0.012204     -0.002550
     17.24369     14.60427     35.18007        -0.055950      0.036806      0.000981
      3.62520      8.42425     35.35382        -0.046260     -0.033502      0.002171
      3.64449     17.46412     35.52508        -0.003453      0.014028      0.012817
     12.69079     17.61104     35.43472        -0.000929      0.012786      0.007155
      5.44706      0.86629     35.22628        -0.012257      0.008543      0.017904
      4.86883     10.35484     34.89661         0.029951     -0.021776      0.018443
     14.58538      0.85672     35.01870         0.008159      0.016098      0.002547
      0.80199      3.94097     41.66173        -0.013540      0.011458     -0.008806
      0.95543     12.88663     41.12193         0.019116     -0.013741     -0.042521
      9.84173      3.71931     41.18432         0.006151     -0.034930     -0.005498
      9.88667     12.74923     40.93110        -0.002718      0.005148      0.000430
      3.74186      8.02018     40.89996         0.016873      0.029395     -0.007407
      3.67717     17.14508     41.05919         0.018631      0.024290     -0.012802
     12.71917      8.23630     41.09098        -0.020911     -0.022921     -0.004279
     12.69136     17.25034     41.01938        -0.015617     -0.009665      0.000946
      8.16393      5.35348     41.09262         0.033909     -0.012018     -0.002565
      8.37123     14.50341     41.20763        -0.004575     -0.006289     -0.006866
     17.25482      5.46457     40.94286        -0.010529      0.012981     -0.005662
     17.37582     14.54894     40.98427        -0.001018     -0.000936      0.038173
      5.36824      0.67194     41.33665         0.028889      0.018334      0.025125
      5.17320      9.71795     41.60857         0.020224      0.011025      0.004112
     14.31677      0.82647     41.39605        -0.011265     -0.004528      0.001291
     14.48783      9.76760     41.09064        -0.012742      0.006046     -0.008918
      0.94617      3.58538     47.18502         0.000800      0.003060      0.006649
      0.85953     12.69970     47.27003         0.014548     -0.012605     -0.004989
      9.98091      3.52263     47.18808         0.007650     -0.007300     -0.021573
      9.83642     12.60758     47.15117         0.003494      0.000775      0.026792
      3.67223      8.26588     47.37260        -0.000348      0.005182      0.003044
      3.66025     17.31451     47.37349         0.017166      0.010091     -0.001268
     12.68963      8.30965     47.31541        -0.006557     -0.004020      0.008158
     12.77202     17.44535     47.76109         0.009810      0.021457     -0.007846
      8.35344      5.03803     47.87138         0.015740     -0.011787     -0.029111
      8.27763     14.24084     47.71630         0.007351      0.012482     -0.019121
     17.38839      5.02927     48.02256         0.003093      0.007071      0.015132
     17.26509     14.33476     47.44141         0.007165     -0.008225      0.004565
      5.32245      0.89336     47.47356         0.024559      0.016978      0.007704
      5.33019      9.90706     47.40368         0.010714      0.017629      0.029411
     14.33794      1.05152     47.32399         0.004402      0.014963     -0.006383
     14.33415      9.96346     47.24183         0.003648      0.004487      0.005057
     13.85151      9.48433     33.15093        -0.049318      0.016436      0.028312
      8.90258      0.11093     34.71609        -0.001730     -0.013294      0.000772
      8.94470      8.98808     34.55530         0.009367      0.003759      0.000946
     18.05203      0.04625     34.63861        -0.005129      0.010905      0.004886
      0.16740      8.81258     34.51280         0.000742     -0.002738     -0.003341
      4.67083      4.57466     34.69273        -0.005000     -0.005634      0.001546
      4.28723     13.96358     34.64529         0.001433     -0.020488     -0.001428
     13.36164      4.25694     34.77929         0.004459     -0.004988      0.000992
     13.06854     14.09404     34.63480         0.009591     -0.003458      0.002137
      0.08638      0.29226     40.98779         0.005122     -0.003427      0.001774
      0.05858      9.25757     40.89373        -0.008307     -0.000197      0.004786
      9.05271      0.20736     41.09531        -0.006093      0.001113     -0.004944
      9.14170      8.94385     40.96596        -0.011608     -0.003062     -0.002719
      4.56286      4.42095     41.06110        -0.009403     -0.007083      0.000860
      4.69398     13.26823     40.98395         0.003662      0.005503      0.005336
     13.38941      4.56792     41.09344        -0.004241      0.006937     -0.010355
     13.77446     13.29174     40.91584         0.003024      0.002695     -0.003996
      2.48560      2.01064     37.77922         0.004760     -0.005921      0.002135
      2.42978     11.09601     37.86253         0.000404      0.011465      0.000097
     11.58843      1.88510     37.96229         0.006805     -0.001887     -0.003359
     11.51142     11.02920     37.92160         0.000536      0.000731     -0.000878
      6.38870      7.15511     38.11979        -0.006603      0.013175     -0.010949
      6.43867     16.10799     38.17854         0.001994      0.004119      0.004477
     15.47519      7.05166     38.09971         0.004207     -0.005991      0.003530
     15.46563     16.10234     37.98214        -0.002081      0.003824      0.011322
      1.89306      6.49365     37.99047        -0.001579     -0.001026      0.002298
      1.84776     15.47862     38.19574        -0.001494      0.002993      0.017024
     10.72090      6.29821     37.78055        -0.000612      0.003062      0.006913
     10.93652     15.57161     38.15112         0.008196     -0.003832      0.016081
      7.04493      2.62408     38.22675         0.000914      0.000062     -0.000309
      7.05763     11.66759     37.48205         0.006888      0.007905     -0.012375
     15.96245      2.52534     38.11862         0.003502     -0.008420     -0.002688
     16.07201     11.68428     37.25101        -0.011366      0.002530      0.002060
     17.89971     17.99632     47.25278        -0.003246     -0.006847     -0.002029
     17.94797      8.66927     47.19470         0.000635     -0.003393     -0.004599
      8.94566     17.86264     47.34361         0.001337     -0.006911      0.009791
      8.86261      8.75478     47.26494         0.009293     -0.001288     -0.002886
      4.62692      4.61609     47.33335         0.000571     -0.001596     -0.008179
      4.59752     13.60812     47.25927        -0.003065      0.010197      0.004225
     13.70255      4.63983     47.37929        -0.018710      0.002369     -0.005278
     13.43273     13.89104     47.18069         0.001475      0.013150     -0.001121
      2.66526      2.02483     44.20187         0.010025     -0.006766      0.010350
      2.43988     11.25330     44.16442        -0.005157     -0.000776      0.007028
     11.84333      1.87642     44.26998        -0.002537      0.004826     -0.001455
     11.54812     11.13525     44.11147        -0.011081      0.012236     -0.003624
      6.43152      7.22685     43.99014         0.001012      0.002186     -0.005339
      6.51703     16.25898     43.98833        -0.002275      0.006955      0.014063
     15.56156      7.14590     43.77512         0.004248      0.003359     -0.003184
     15.62651     16.12797     43.90212        -0.008252     -0.006959     -0.009521
      2.00397      6.51901     44.15111         0.008416      0.004685      0.002068
      2.14823     15.72269     44.17604        -0.000689      0.003523     -0.007709
     11.08602      6.58334     44.27708         0.006018     -0.002195      0.011910
     10.97023     15.50393     43.80826        -0.027986     -0.027169      0.015139
      7.15762      2.62529     44.26756        -0.000037     -0.001748     -0.000524
      7.10488     11.62908     44.28911         0.003209      0.011645     -0.002122
     16.19699      2.69617     44.21623         0.000471     -0.001999      0.004046
     16.07452     11.59098     44.35789         0.005985      0.005240     -0.015460
      2.58428      1.89195     50.05711        -0.005004      0.006152     -0.001193
      2.62771     10.92065     50.02901        -0.000177      0.003153     -0.005689
     11.56792      1.93626     50.12739         0.008915     -0.019587     -0.011835
     11.64417     10.90189     49.91978         0.007493     -0.003428     -0.001655
      6.23809      7.31445     50.29271         0.002798      0.009556     -0.004445
      6.20441     16.34245     50.28557        -0.000506      0.002747     -0.001526
     15.25298      7.39059     50.27757        -0.014669      0.001722      0.003622
     15.41689     16.16105     50.33865         0.006652      0.000252     -0.001461
      1.88441      6.47287     50.33514         0.006386      0.004351      0.005189
      1.81774     15.41213     50.11649        -0.005499     -0.001953     -0.000508
     10.86743      6.42024     50.29488         0.001638      0.008969      0.001938
     10.83983     15.40155     50.36956         0.005167     -0.002989      0.021546
      7.12309      2.62894     50.34190         0.017658     -0.002514     -0.002724
      7.22079     11.76168     50.21075        -0.018104     -0.006116      0.009962
     16.12833      2.62988     50.42951         0.004205      0.003718     -0.010799
     16.20144     11.74951     49.93265        -0.000602     -0.003045      0.000032
     17.95637      0.02695     37.84450        -0.000194      0.011480      0.000284
     17.96560      9.05888     37.68985         0.014313      0.031092     -0.009311
      8.93994      0.07924     37.94357         0.001221     -0.013038     -0.012962
      9.02846      8.98968     37.64521        -0.022982      0.008091      0.004082
      4.54569      4.60204     37.86645        -0.009593     -0.004333      0.006487
      4.45705     13.60009     37.84437        -0.003358     -0.006779     -0.012128
     13.34699      4.55274     37.86956        -0.001421     -0.008558     -0.031666
     13.43636     13.59605     37.74275        -0.011531      0.007255     -0.001326
      0.07414      0.16866     44.10097         0.006908     -0.000707     -0.000062
      0.05065      9.11757     44.04874        -0.020339     -0.009143      0.015106
      9.17591      0.14518     44.22677        -0.001068     -0.002616      0.013075
      9.06874      9.10701     44.12251        -0.002489     -0.019192     -0.013921
      4.60840      4.60360     44.19334        -0.003130      0.004919      0.003376
      4.65497     13.68613     44.13088         0.001746     -0.008910      0.005619
     13.61653      4.62411     44.21432        -0.006362     -0.000063      0.013694
     13.61068     13.61595     44.02576        -0.003476     -0.007593     -0.005384
     18.04977      0.13695     50.27258         0.010638     -0.021945     -0.020553
      0.02160      9.21438     50.17511        -0.004524     -0.014343     -0.009329
      9.01251      0.07181     50.36097        -0.001214     -0.005424     -0.015484
      9.03971      9.18104     50.25227        -0.006059     -0.003932      0.019021
      4.46271      4.74801     50.34346         0.005404     -0.011546      0.009164
      4.44680     13.76180     50.27285         0.028601      0.001716     -0.003364
     13.51922      4.84253     50.38614        -0.009502     -0.008262     -0.005585
     13.49722     13.73688     50.21369         0.002091     -0.017042     -0.000469
 -----------------------------------------------------------------------------------
    total drift:                               -0.064123     -0.005577      0.008112


--------------------------------------------------------------------------------------------------------



  FREE ENERGIE OF THE ION-ELECTRON SYSTEM (eV)
  ---------------------------------------------------
  free  energy   TOTEN  =     -1577.75868821 eV

  energy  without entropy=    -1577.75868821  energy(sigma->0) =    -1577.75868821
 
 d Force = 0.3155105E-02[-0.148E-03, 0.646E-02]  d Energy = 0.3176168E-02-0.211E-04
 d Force =-0.3519190E+01[-0.353E+01,-0.351E+01]  d Ewald  =-0.3519189E+01-0.127E-05


--------------------------------------------------------------------------------------------------------


    POTLOK:  cpu time      0.8947: real time      0.8947


--------------------------------------------------------------------------------------------------------




--------------------------------------------------------------------------------------------------------


  
 reached required accuracy - stopping structural energy minimisation
     LOOP+:  cpu time    160.1546: real time    160.3642
 vacuum level on the upper side and lower side of the slab         2.677         1.407
    4ORBIT:  cpu time      0.0000: real time      0.0000

 total amount of memory used by VASP MPI-rank0 19519611. kBytes
=======================================================================

   base      :      30000. kBytes
   nonlr-proj:      44437. kBytes
   fftplans  :     484480. kBytes
   grid      :    1262720. kBytes
   one-center:       5054. kBytes
   wavefun   :   17692920. kBytes
 
  
  
 General timing and accounting informations for this job:
 ========================================================
  
                  Total CPU time used (sec):     1416.279
                            User time (sec):     1103.022
                          System time (sec):      313.257
                         Elapsed time (sec):     1422.669
  
                   Maximum memory used (kb):    21436560.
                   Average memory used (kb):          N/A
  
                          Minor page faults:      9206292
                          Major page faults:         1829
                 Voluntary context switches:        29849
